 argument  1 = nwcati.nw
                                         
                                         


              Northwest Computational Chemistry Package (NWChem) 6.8
              ------------------------------------------------------


                    Environmental Molecular Sciences Laboratory
                       Pacific Northwest National Laboratory
                                Richland, WA 99352

                              Copyright (c) 1994-2018
                       Pacific Northwest National Laboratory
                            Battelle Memorial Institute

             NWChem is an open-source computational chemistry package
                        distributed under the terms of the
                      Educational Community License (ECL) 2.0
             A copy of the license is included with this distribution
                              in the LICENSE.TXT file

                                  ACKNOWLEDGMENT
                                  --------------

            This software and its documentation were developed at the
            EMSL at Pacific Northwest National Laboratory, a multiprogram
            national laboratory, operated for the U.S. Department of Energy
            by Battelle under Contract Number DE-AC05-76RL01830. Support
            for this work was provided by the Department of Energy Office
            of Biological and Environmental Research, Office of Basic
            Energy Sciences, and the Office of Advanced Scientific Computing.


           Job information
           ---------------

    hostname        = r03n41.localdomain.hpc.udel.edu
    program         = nwchem
    date            = Mon Jul 20 20:40:50 2020

    compiled        = Mon_Jun_22_16:48:09_2020
    source          = /opt/shared/nwchem/6.8.1/src
    nwchem branch   = Development
    nwchem revision = N/A
    ga revision     = 5.6.5
    use scalapack   = F
    input           = nwcati.nw
    prefix          = nwcati.
    data base       = /work/akanane/users/akanane/Relativistic/GA/parallel/test/nwcati.db
    status          = startup
    nproc           =        1
    time left       =     -1s



           Memory information
           ------------------

    heap     = 1048575998 doubles =   8000.0 Mbytes
    stack    = 1048575995 doubles =   8000.0 Mbytes
    global   = 2097152000 doubles =  16000.0 Mbytes (distinct from heap & stack)
    total    = 4194303993 doubles =  32000.0 Mbytes
    verify   = yes
    hardfail = no 


           Directory information
           ---------------------

  0 permanent = /work/akanane/users/akanane/Relativistic/GA/parallel/test
  0 scratch   = /lustre/scratch/akanane/nwchem/6




                                NWChem Input Module
                                -------------------


  library name resolved from: environment
  library file name is: </opt/shared/nwchem/6.8.1/data/libraries/>
  
                      Basis "ao basis" -> "" (spherical)
                      -----
  I (Iodine)
  ----------
            Exponent  Coefficients 
       -------------- ---------------------------------------------------------
  1 S  4.29766000E+04  1.000000

  2 S  6.43901000E+03  1.000000

  3 S  1.45578000E+03  1.000000

  4 S  4.05361000E+02  1.000000

  5 S  1.16980000E+02  1.000000

  6 S  2.96326000E+01  1.000000

  7 S  1.85100000E+01  1.000000

  8 S  1.15620000E+01  1.000000

  9 S  6.59507000E+00  1.000000

 10 S  4.05340000E+00  1.000000

 11 S  2.14090000E+00  1.000000

 12 S  1.18164000E+00  1.000000

 13 S  6.00372000E-01  1.000000

 14 S  3.19965000E-01  1.000000

 15 S  1.58769000E-01  1.000000

 16 S  7.54510000E-02  1.000000

 17 P  5.69643000E+02  1.000000

 18 P  1.31496000E+02  1.000000

 19 P  3.23843000E+01  1.000000

 20 P  2.02254000E+01  1.000000

 21 P  1.12381000E+01  1.000000

 22 P  6.62794000E+00  1.000000

 23 P  3.64780000E+00  1.000000

 24 P  1.98853000E+00  1.000000

 25 P  1.06367000E+00  1.000000

 26 P  5.24303000E-01  1.000000

 27 P  2.55382000E-01  1.000000

 28 P  1.19755000E-01  1.000000

 29 P  5.41990000E-02  1.000000

 30 D  5.78808000E+02  1.000000

 31 D  1.75853000E+02  1.000000

 32 D  6.88292000E+01  1.000000

 33 D  2.87354000E+01  1.000000

 34 D  1.23166000E+01  1.000000

 35 D  7.61143000E+00  1.000000

 36 D  4.70452000E+00  1.000000

 37 D  2.79465000E+00  1.000000

 38 D  1.61644000E+00  1.000000

 39 D  9.14211000E-01  1.000000

 40 D  5.04730000E-01  1.000000

 41 D  2.76280000E-01  1.000000

 42 D  1.39200000E-01  1.000000

 43 F  6.73900000E-01  1.000000

 44 F  3.63100000E-01  1.000000

 45 F  1.95600000E-01  1.000000

 46 G  6.72100000E-01  1.000000

 47 G  3.22600000E-01  1.000000

 48 H  5.90800000E-01  1.000000

  At (Astatine)
  -------------
            Exponent  Coefficients 
       -------------- ---------------------------------------------------------
  1 S  3.03080876E+02  1.000000

  2 S  2.24085000E+01  1.000000

  3 S  1.40490000E+01  1.000000

  4 S  7.63960250E+00  1.000000

  5 S  1.89494000E+00  1.000000

  6 S  9.60058800E-01  1.000000

  7 S  3.19654600E-01  1.000000

  8 S  1.22086100E-01  1.000000

  9 P  1.19852412E+01  1.000000

 10 P  8.22689180E+00  1.000000

 11 P  2.31140820E+00  1.000000

 12 P  1.02133000E+00  1.000000

 13 P  3.03830400E-01  1.000000

 14 P  1.00110500E-01  1.000000

 15 D  2.13084000E+01  1.000000

 16 D  7.07428630E+00  1.000000

 17 D  2.76898000E+00  1.000000

 18 D  1.37314000E+00  1.000000

 19 D  6.39439100E-01  1.000000

 20 D  2.59300000E-01  1.000000



 Summary of "ao basis" -> "" (spherical)
 ------------------------------------------------------------------------------
       Tag                 Description            Shells   Functions and Types
 ---------------- ------------------------------  ------  ---------------------
 I                       user specified             48      170   16s13p13d3f2g1h
 At                      user specified             20       56   8s6p6d


  library name resolved from: environment
  library file name is: </opt/shared/nwchem/6.8.1/data/libraries/>
  
                 ECP       "ecp basis" -> "" (cartesian)
                -----
  At (Astatine) Replaces    60 electrons
  --------------------------------------
             Channel    R-exponent     Exponent     Coefficients
         ------------ ---------------------------------------------------------
  1 U L       Both         0.00      525.754846      -0.173059
  1 U L       Both         1.00     2395.715850      -2.276906
  1 U L       Both         1.00      278.392187      -3.857969
  1 U L       Both         1.00       61.458962     -36.770662
  1 U L       Both         1.00       44.129376      37.601009
  1 U L       Both         1.00       31.359815     -23.238699
  1 U L       Both         1.00       11.620573     -16.176532
  1 U L       Both         1.00        4.446625      -3.261971
  1 U L       Both         1.00        2.935632       0.180132
  1 U L       Both         1.00        1.910251      -0.146253
  1 U L       Both         1.00        0.178868      -0.000306
  1 U L       Both         1.00        0.018768      -0.000022
  1 U L       Both         1.00        0.009761      -0.000001

  2 U-s       Both         0.00       78.594234      10.173059
  2 U-s       Both         1.00       20.707609      53.132769
  2 U-s       Both         2.00       45.167107     915.704248
  2 U-s       Both         2.00       30.243749   -1411.543382
  2 U-s       Both         2.00       20.306371    1849.067583
  2 U-s       Both         2.00       13.560689   -1518.357864
  2 U-s       Both         2.00        8.557058    1106.328043
  2 U-s       Both         2.00        5.419636    -461.892244
  2 U-s       Both         2.00        3.516909     198.105995
  2 U-s       Both         2.00        2.287714     -81.896353
  2 U-s       Both         2.00        1.492833      32.227905
  2 U-s       Both         2.00        0.974359     -11.458592
  2 U-s       Both         2.00        0.633560       3.370887
  2 U-s       Both         2.00        0.410317      -0.726005
  2 U-s       Both         2.00        0.263860       0.084087

  3 U-p       Both         0.00       77.044856       9.173059
  3 U-p       Both         1.00      208.029432     -11.921411
  3 U-p       Both         1.00       28.036479      67.690912
  3 U-p       Both         2.00       39.868030     362.644345
  3 U-p       Both         2.00       26.002305    -582.208229
  3 U-p       Both         2.00       15.965542    1135.430155
  3 U-p       Both         2.00       11.089072   -1255.187511
  3 U-p       Both         2.00        8.084023     873.528658
  3 U-p       Both         2.00        5.150690    -147.543640
  3 U-p       Both         2.00        2.818771      20.737280
  3 U-p       Both         2.00        1.590819      -4.949674
  3 U-p       Both         2.00        0.878982       1.224799
  3 U-p       Both         2.00        0.479414      -0.318322
  3 U-p       Both         2.00        0.264399       0.075196
  3 U-p       Both         2.00        0.157424      -0.011770

  4 U-d       Both         0.00       30.117728       7.173059
  4 U-d       Both         1.00        9.540744     223.203571
  4 U-d       Both         1.00        5.932081    -532.676982
  4 U-d       Both         1.00        3.279986     364.117347
  4 U-d       Both         2.00        6.384402     470.098427
  4 U-d       Both         2.00        3.591978    -476.290215
  4 U-d       Both         2.00        1.790367       1.447964
  4 U-d       Both         2.00        0.921766      -0.463077
  4 U-d       Both         2.00        0.485962       0.163733
  4 U-d       Both         2.00        0.266420      -0.069600
  4 U-d       Both         2.00        0.150370       0.031881
  4 U-d       Both         2.00        0.090090      -0.013071
  4 U-d       Both         2.00        0.051240       0.003831
  4 U-d       Both         2.00        0.029281      -0.000895
  4 U-d       Both         2.00        0.016722       0.000119

  5 U-f       Both         0.00        0.891112       4.173059
  5 U-f       Both         1.00       18.356496      62.551914
  5 U-f       Both         2.00    32873.554569    1035.415119
  5 U-f       Both         2.00     3063.446789     192.725071
  5 U-f       Both         2.00       31.894642    -183.984679
  5 U-f       Both         2.00        4.214026      69.570454
  5 U-f       Both         2.00        1.887936    -131.986631
  5 U-f       Both         2.00        1.332761     223.444177
  5 U-f       Both         2.00        0.873304    -167.865396
  5 U-f       Both         2.00        0.632167      71.630825
  5 U-f       Both         2.00        0.438045     -11.215886
  5 U-f       Both         2.00        0.261926       0.470906
  5 U-f       Both         2.00        0.174510       0.000847

  I (Iodine) Replaces    28 electrons
  -----------------------------------
             Channel    R-exponent     Exponent     Coefficients
         ------------ ---------------------------------------------------------
  1 U L       Both         0.00     3405.857671      -0.065421
  1 U L       Both         1.00      927.752835      -7.334367
  1 U L       Both         1.00      158.004945     -19.790530
  1 U L       Both         2.00       62.067715     -92.854738
  1 U L       Both         2.00       24.278539     -45.262940
  1 U L       Both         2.00        9.015774      -4.117751
  1 U L       Both         2.00        1.317061       0.019450
  1 U L       Both         2.00        0.123835       0.000014
  1 U L       Both         2.00        0.080457      -0.000018
  1 U L       Both         2.00        0.027631      -0.000001

  2 U-s       Both         0.00       80.647243       6.065421
  2 U-s       Both         1.00       30.921706      53.657527
  2 U-s       Both         2.00       35.616279     119.855465
  2 U-s       Both         2.00        7.769323     360.067280
  2 U-s       Both         2.00        5.739302    -281.694982
  2 U-s       Both         2.00        4.224534     103.253740
  2 U-s       Both         2.00        3.063237     -18.593454
  2 U-s       Both         2.00        2.160862       1.017991

  3 U-p       Both         0.00        2.473636       5.065421
  3 U-p       Both         1.00       54.006787     -63.121457
  3 U-p       Both         1.00       37.484452     105.311853
  3 U-p       Both         2.00       28.665974   -1043.874940
  3 U-p       Both         2.00       20.732787    1922.630660
  3 U-p       Both         2.00       15.204544   -1892.525479
  3 U-p       Both         2.00       10.920397    1022.108595
  3 U-p       Both         2.00        7.303241    -196.044150
  3 U-p       Both         2.00        2.282016      -0.682364
  3 U-p       Both         2.00        1.535589      -2.468033
  3 U-p       Both         2.00        0.915724       1.160134
  3 U-p       Both         2.00        0.552537      -0.400633
  3 U-p       Both         2.00        0.353693       0.098679
  3 U-p       Both         2.00        0.226257      -0.010579

  4 U-d       Both         0.00       67.944199       3.065421
  4 U-d       Both         1.00      279.825593      -5.463048
  4 U-d       Both         1.00      167.148913      10.033497
  4 U-d       Both         1.00       83.121944     -22.896935
  4 U-d       Both         1.00       54.753000      18.757131
  4 U-d       Both         1.00       12.391017      36.636632
  4 U-d       Both         2.00        9.405017    -157.187750
  4 U-d       Both         2.00        6.846037     238.906156
  4 U-d       Both         2.00        5.055747    -119.454559
  4 U-d       Both         2.00        3.650047      30.006952
  4 U-d       Both         2.00        2.581677      -3.456656
  4 U-d       Both         2.00        0.390465       0.002708
  4 U-d       Both         2.00        0.207977      -0.001331
  4 U-d       Both         2.00        0.127859       0.000368

  library name resolved from: environment
  library file name is: </opt/shared/nwchem/6.8.1/data/libraries/>
  

 **** WARNING Zero Coefficient **** on atom "              At"
 angular momentum value: 1  standard basis set name: "user specified"
 input line that generated warning:
   277: 0	7.704485637704510E+01		0.000000000000000E+00
  

 **** WARNING Zero Coefficient **** on atom "              At"
 angular momentum value: 2  standard basis set name: "user specified"
 input line that generated warning:
   293: 0	3.011772828438610E+01		0.000000000000000E+00
  

 **** WARNING Zero Coefficient **** on atom "              At"
 angular momentum value: 3  standard basis set name: "user specified"
 input line that generated warning:
   309: 0	8.911119625038520E-01		0.000000000000000E+00
  

 **** WARNING Zero Coefficient **** on atom "              At"
 angular momentum value: 4  standard basis set name: "user specified"
 input line that generated warning:
   323: 0	5.257548462769590E+02		0.000000000000000E+00
  

 **** WARNING Zero Coefficient **** on atom "               I"
 angular momentum value: 1  standard basis set name: "user specified"
 input line that generated warning:
   337: 0	2.47363562066702E+00	0.00000000000000E+00
  

 **** WARNING Zero Coefficient **** on atom "               I"
 angular momentum value: 2  standard basis set name: "user specified"
 input line that generated warning:
   352: 0	6.79441992694957E+01	0.00000000000000E+00
  

 **** WARNING Zero Coefficient **** on atom "               I"
 angular momentum value: 3  standard basis set name: "user specified"
 input line that generated warning:
   367: 0	3.40585767067249E+03	0.00000000000000E+00
  
             SO Potential "so potential" -> ""
                      -----
  At (Astatine)
  -------------
          R-exponent    Exponent     Coefficients 
         ------------ ------------------------------------------------------------
  1 U-p      1.00      208.029432       2.561177
  1 U-p      1.00       28.036479      -1.650544
  1 U-p      2.00       39.868030      77.307362
  1 U-p      2.00       26.002305    -118.585980
  1 U-p      2.00       15.965542     138.579485
  1 U-p      2.00       11.089072     -52.715330
  1 U-p      2.00        8.084023     -58.916702
  1 U-p      2.00        5.150690      62.873440
  1 U-p      2.00        2.818771     -15.889430
  1 U-p      2.00        1.590819       4.843922
  1 U-p      2.00        0.878982      -1.405982
  1 U-p      2.00        0.479414       0.390801
  1 U-p      2.00        0.264399      -0.095951
  1 U-p      2.00        0.157424       0.015456

  2 U-d      1.00        9.540744       1.612834
  2 U-d      1.00        5.932081      -1.350383
  2 U-d      1.00        3.279986      -0.287663
  2 U-d      2.00        6.384402      -1.664264
  2 U-d      2.00        3.591978       4.036069
  2 U-d      2.00        1.790367      -0.890782
  2 U-d      2.00        0.921766       0.301059
  2 U-d      2.00        0.485962      -0.123316
  2 U-d      2.00        0.266420       0.057045
  2 U-d      2.00        0.150370      -0.027051
  2 U-d      2.00        0.090090       0.011366
  2 U-d      2.00        0.051240      -0.003367
  2 U-d      2.00        0.029281       0.000795
  2 U-d      2.00        0.016722      -0.000104

  3 U-f      1.00       18.356496      -0.000643
  3 U-f      2.00    32873.554569       0.834481
  3 U-f      2.00     3063.446789       0.273486
  3 U-f      2.00       31.894642       0.160633
  3 U-f      2.00        4.214026      -0.068824
  3 U-f      2.00        1.887936       0.022494
  3 U-f      2.00        1.332761      -0.174753
  3 U-f      2.00        0.873304       0.160803
  3 U-f      2.00        0.632167       0.036072
  3 U-f      2.00        0.438045      -0.065269
  3 U-f      2.00        0.261926       0.016437
  3 U-f      2.00        0.174510      -0.002626

  4 U-g      1.00     2395.715850      -1.527919
  4 U-g      1.00      278.392187      -3.033005
  4 U-g      1.00       61.458962       2.574144
  4 U-g      1.00       44.129376      -2.630667
  4 U-g      1.00       31.359815       1.110494
  4 U-g      1.00       11.620573      -0.051219
  4 U-g      1.00        4.446625       0.042132
  4 U-g      1.00        2.935632      -0.036158
  4 U-g      1.00        1.910251       0.008870
  4 U-g      1.00        0.178868       0.000099
  4 U-g      1.00        0.018768       0.000004
  4 U-g      1.00        0.009761      -0.000000

  I (Iodine)
  ----------
          R-exponent    Exponent     Coefficients 
         ------------ ------------------------------------------------------------
  1 U-p      1.00       54.006787      -1.087277
  1 U-p      1.00       37.484452       2.254708
  1 U-p      2.00       28.665974     -17.997093
  1 U-p      2.00       20.732787      11.115127
  1 U-p      2.00       15.204544      27.000227
  1 U-p      2.00       10.920397     -40.950947
  1 U-p      2.00        7.303241      20.748134
  1 U-p      2.00        2.282016      -2.451176
  1 U-p      2.00        1.535589       2.049999
  1 U-p      2.00        0.915724      -0.810760
  1 U-p      2.00        0.552537       0.273818
  1 U-p      2.00        0.353693      -0.068780
  1 U-p      2.00        0.226257       0.007704

  2 U-d      1.00      279.825593       0.065673
  2 U-d      1.00      167.148913      -0.266274
  2 U-d      1.00       83.121944       0.527278
  2 U-d      1.00       54.753000      -0.539331
  2 U-d      1.00       12.391017       0.266113
  2 U-d      2.00        9.405017      -2.535567
  2 U-d      2.00        6.846037       1.316012
  2 U-d      2.00        5.055747       1.139583
  2 U-d      2.00        3.650047      -0.772723
  2 U-d      2.00        2.581677       0.142506
  2 U-d      2.00        0.390465       0.000372
  2 U-d      2.00        0.207977      -0.000167
  2 U-d      2.00        0.127859       0.000049

  3 U-f      1.00      927.752835      -0.973300
  3 U-f      1.00      158.004945       1.632427
  3 U-f      2.00       62.067715       0.442682
  3 U-f      2.00       24.278539       0.273109
  3 U-f      2.00        9.015774      -0.010698
  3 U-f      2.00        1.317061       0.001315
  3 U-f      2.00        0.123835       0.000009
  3 U-f      2.00        0.080457      -0.000002
  3 U-f      2.00        0.027631       0.000000

                                        AtI
                                        ---

 Scaling coordinates for geometry "geometry" by  1.889725989
 (inverse scale =  0.529177249)

 Turning off AUTOSYM since
 SYMMETRY directive was detected!


          ------
          auto-z
          ------
  no constraints, skipping    0.0000000000000000     
  no constraints, skipping    0.0000000000000000     


                             Geometry "geometry" -> ""
                             -------------------------

 Output coordinates in angstroms (scale by  1.889725989 to convert to a.u.)

  No.       Tag          Charge          X              Y              Z
 ---- ---------------- ---------- -------------- -------------- --------------
    1 At                  85.0000    -1.08294914     0.00000000     0.00000000
    2 I                   53.0000     1.73680523     0.00000000     0.00000000

      Atomic Mass 
      ----------- 

      At               210.987500
      I                126.900400


 Effective nuclear repulsion energy (a.u.)     845.4436783952

            Nuclear Dipole moment (a.u.) 
            ----------------------------
        X                 Y               Z
 ---------------- ---------------- ----------------
    -0.0000000000     0.0000000000     0.0000000000



                                Z-matrix (autoz)
                                -------- 

 Units are Angstrom for bonds and degrees for angles

      Type          Name      I     J     K     L     M      Value
      ----------- --------  ----- ----- ----- ----- ----- ----------
    1 Stretch                  1     2                       2.81975


            XYZ format geometry
            -------------------
     2
 geometry
 At                   -1.08294914     0.00000000     0.00000000
 I                     1.73680523     0.00000000     0.00000000

 ==============================================================================
                                internuclear distances
 ------------------------------------------------------------------------------
       center one      |      center two      | atomic units |  angstroms
 ------------------------------------------------------------------------------
    2 I                |   1 At               |     5.32856  |     2.81975
 ------------------------------------------------------------------------------
                         number of included internuclear distances:          1
 ==============================================================================




                                 NWChem DFT Module
                                 -----------------


                                        AtI




 Summary of "ao basis" -> "ao basis" (spherical)
 ------------------------------------------------------------------------------
       Tag                 Description            Shells   Functions and Types
 ---------------- ------------------------------  ------  ---------------------
 I                       user specified             48      170   16s13p13d3f2g1h
 At                      user specified             20       56   8s6p6d


  Caching 1-el integrals 

            General Information
            -------------------
          SCF calculation type: DFT
          Wavefunction type:  spin polarized.
          No. of atoms     :     2
          No. of electrons :    50
           Alpha electrons :    25
            Beta electrons :    25
          Charge           :     0
          Spin multiplicity:     1
          Use of symmetry is: off; symmetry adaption is: off
          Maximum number of iterations: 100
          AO basis - number of functions:   226
                     number of shells:    68
          Convergence on energy requested:  1.00D-06
          Convergence on density requested:  5.00D-06
          Convergence on gradient requested:  5.00D-06

              XC Information
              --------------
                         PBE0 Method XC Functional
                     Hartree-Fock (Exact) Exchange  0.250          
          PerdewBurkeErnzerhof Exchange Functional  0.750          
            Perdew 1991 LDA Correlation Functional  1.000 local    
           PerdewBurkeErnz. Correlation Functional  1.000 non-local

             Grid Information
             ----------------
          Grid used for XC integration:  xfine     
          Radial quadrature: Mura-Knowles        
          Angular quadrature: Lebedev. 
          Tag              B.-S. Rad. Rad. Pts. Rad. Cut. Ang. Pts.
          ---              ---------- --------- --------- ---------
          At                  1.90      205          12.0      1454
          I                   1.40      205          11.0      1454
          Grid pruning is: on 
          Number of quadrature shells:   410
          Spatial weights used:  Erf1

          Convergence Information
          -----------------------
          Convergence aids based upon iterative change in 
          total energy or number of iterations. 
          Levelshifting, if invoked, occurs when the 
          HOMO/LUMO gap drops below (HL_TOL):  1.00D-02
          DIIS, if invoked, will attempt to extrapolate 
          using up to (NFOCK): 10 stored Fock matrices.

                    Damping( 0%)  Levelshifting(0.5)       DIIS
                  --------------- ------------------- ---------------
          dE  on:    start            ASAP                start   
          dE off:    2 iters        100 iters           100 iters 


      Screening Tolerance Information
      -------------------------------
          Density screening/tol_rho:  1.00D-10
          AO Gaussian exp screening on grid/accAOfunc:  14
          CD Gaussian exp screening on grid/accCDfunc:  20
          XC Gaussian exp screening on grid/accXCfunc:  20
          Schwarz screening/accCoul:  1.00D-10

 Performing spin-orbit DFT (SO-DFT) calculations
 -----------------------------------------------


      Superposition of Atomic Density Guess
      -------------------------------------

 Sum of atomic energies:        -647.34793916

      Non-variational initial energy
      ------------------------------

 Total energy =    -556.998297
 1-e energy   =   -1203.354303
 2-e energy   =     529.063598
 HOMO         =      -0.287958
 LUMO         =      -0.147146

   Time prior to 1st pass:      7.8

 Integral file          = /lustre/scratch/akanane/nwchem/6/nwcati.aoints.0
 Record size in doubles =    65536    No. of integs per rec  =    43688
 Max. records in memory =    10130    Max. records in file   = ********
 No. of bits per label  =        8    No. of bits per value  =       64


 #quartets = 1.904D+06 #integrals = 4.028D+07 #direct =  0.0% #cached =100.0%


 Grid_pts file          = /lustre/scratch/akanane/nwchem/6/nwcati.gridpts.0
 Record size in doubles =  12289        No. of grid_pts per rec  =   3070
 Max. records in memory =    215        Max. recs in file   = 807619169

 Grid integrated density:          50.000000568089
 Requested integration accuracy:   0.10E-07

           Memory utilization after 1st SCF pass: 
           Heap Space remaining (MW):      381.99           381986102
          Stack Space remaining (MW):     1048.16          1048161356

   convergence    iter        energy       DeltaE   RMS-Dens  Diis-err    time
 ---------------- ----- ----------------- --------- --------- ---------  ------
 d= 0,ls=0.0,diis     1   -559.2011511811 -6.76D+02  2.43D-03  7.30D+00    27.7
                                                     2.43D-03  7.30D+00
 Grid integrated density:          50.000000537836
 Requested integration accuracy:   0.10E-07
 d= 0,ls=0.0,diis     2   -559.5689092505 -3.68D-01  1.01D-03  4.56D-02    34.5
                                                     1.01D-03  4.56D-02
 Grid integrated density:          50.000000517483
 Requested integration accuracy:   0.10E-07
 d= 0,ls=0.0,diis     3   -559.5688957421  1.35D-05  5.10D-04  5.31D-02    41.3
                                                     5.10D-04  5.31D-02
 Grid integrated density:          50.000000524327
 Requested integration accuracy:   0.10E-07
 d= 0,ls=0.0,diis     4   -559.5801123334 -1.12D-02  9.88D-05  3.77D-04    48.1
                                                     9.88D-05  3.77D-04
 Grid integrated density:          50.000000528520
 Requested integration accuracy:   0.10E-07
 d= 0,ls=0.0,diis     5   -559.5801885917 -7.63D-05  5.37D-05  3.10D-04    54.9
                                                     5.37D-05  3.10D-04
 Grid integrated density:          50.000000526790
 Requested integration accuracy:   0.10E-07
 d= 0,ls=0.0,diis     6   -559.5802923656 -1.04D-04  1.11D-05  9.45D-06    62.1
                                                     1.11D-05  9.45D-06
 Grid integrated density:          50.000000526797
 Requested integration accuracy:   0.10E-07
 d= 0,ls=0.0,diis     7   -559.5802953803 -3.01D-06  4.38D-06  1.14D-06    68.9
                                                     4.38D-06  1.14D-06
 Grid integrated density:          50.000000526734
 Requested integration accuracy:   0.10E-07
 d= 0,ls=0.0,diis     8   -559.5802959313 -5.51D-07  7.03D-07  1.20D-08    76.2
                                                     7.03D-07  1.20D-08
 Grid integrated density:          50.000000526737
 Requested integration accuracy:   0.10E-07


      Total SO-DFT energy =     -559.580295949684
      One electron energy =    -1204.452301193524
           Coulomb energy =      569.068024024239
    Exchange-Corr. energy =      -41.488426992826
 Nuclear repulsion energy =      117.292408212426

 Numeric. integr. density =       50.000000526737

     Total iterative time =     75.1s



                       DFT Final Molecular Orbital Analysis
                       ------------------------------------

 Vector    1  Occ=1.000000D+00  E=-7.197151D+00
              MO Center= -1.7D-07,  8.6D-16,  4.1D-15, r^2= 2.1D-07
  Bfn.         Coefficient        Function           Bfn.         Coefficient        Function  
  ----     -------------------  ------------         ----     -------------------  ------------
   230    -1.109604   0.000000  1 At s                231     0.999834  -0.000000  1 At s          
   229     0.613182  -0.000000  1 At s                232     0.416846   0.000000  1 At s          
   228    -0.136843   0.000000  1 At s          

 Vector    2  Occ=1.000000D+00  E=-7.197151D+00
              MO Center= -1.1D+00,  2.7D-05,  1.1D-09, r^2= 2.2D-01
  Bfn.         Coefficient        Function           Bfn.         Coefficient        Function  
  ----     -------------------  ------------         ----     -------------------  ------------
     4    -1.098826  -0.154282  1 At s                  5     0.990122   0.139019  1 At s          
     3     0.607225   0.085258  1 At s                  6     0.412797   0.057959  1 At s          
     2    -0.135514  -0.019027  1 At s          

 Vector    3  Occ=1.000000D+00  E=-6.994796D+00
              MO Center=  1.8D-05, -3.4D-07, -1.9D-10, r^2= 3.4D-05
  Bfn.         Coefficient        Function           Bfn.         Coefficient        Function  
  ----     -------------------  ------------         ----     -------------------  ------------
    65    -0.003900  -1.203293  2 I  s                 66     0.002012   0.620787  2 I  s          
    67     0.001951   0.602089  2 I  s                 68     0.001799   0.555202  2 I  s          
    64     0.000460   0.141984  2 I  s                 63     0.000299   0.092124  2 I  s          
    70     0.000116   0.035696  2 I  s          

 Vector    4  Occ=1.000000D+00  E=-6.994796D+00
              MO Center=  9.1D-08, -1.1D-13,  1.9D-10, r^2= 1.7D-07
  Bfn.         Coefficient        Function           Bfn.         Coefficient        Function  
  ----     -------------------  ------------         ----     -------------------  ------------
   291    -1.203299   0.000000  2 I  s                292     0.620790  -0.000000  2 I  s          
   293     0.602092  -0.000000  2 I  s                294     0.555205  -0.000000  2 I  s          
   290     0.141985  -0.000000  2 I  s                289     0.092124   0.000000  2 I  s          
   296     0.035696  -0.000000  2 I  s          

 Vector    5  Occ=1.000000D+00  E=-5.370847D+00
              MO Center= -3.7D-01, -1.1D-04,  8.9D-10, r^2= 3.4D-01
  Bfn.         Coefficient        Function           Bfn.         Coefficient        Function  
  ----     -------------------  ------------         ----     -------------------  ------------
    15     0.460567   0.130539  1 At px               243    -0.456490  -0.129383  1 At pz         
    16     0.129383  -0.456490  1 At py                12    -0.204902  -0.058076  1 At px         
   240     0.201669   0.057159  1 At pz                13    -0.057159   0.201669  1 At py         
    18     0.198699   0.056318  1 At px               246    -0.193225  -0.054766  1 At pz         
    19     0.054766  -0.193225  1 At py                 9     0.060032   0.017015  1 At px         

 Vector    6  Occ=1.000000D+00  E=-5.370847D+00
              MO Center= -3.6D-01,  3.1D-10, -7.0D-10, r^2= 3.3D-01
  Bfn.         Coefficient        Function           Bfn.         Coefficient        Function  
  ----     -------------------  ------------         ----     -------------------  ------------
   241     0.478709   0.000000  1 At px                17     0.474471   0.000000  1 At pz         
   242    -0.000000   0.474471  1 At py               238    -0.212974  -0.000000  1 At px         
    14    -0.209613  -0.000000  1 At pz               239     0.000000  -0.209613  1 At py         
   244     0.206526   0.000000  1 At px                20     0.200837   0.000000  1 At pz         
   245    -0.000000   0.200837  1 At py               235     0.062397   0.000000  1 At px         

 Vector    7  Occ=1.000000D+00  E=-5.223984D+00
              MO Center=  5.7D-01, -1.5D-08,  9.3D-06, r^2= 7.3D-01
  Bfn.         Coefficient        Function           Bfn.         Coefficient        Function  
  ----     -------------------  ------------         ----     -------------------  ------------
   317     0.301316   0.000002  2 I  px               318    -0.000004   0.292771  2 I  py         
    93     0.292771   0.000003  2 I  pz               320     0.268753   0.000003  2 I  px         
    96     0.259915   0.000002  2 I  pz               321    -0.000001   0.259915  2 I  py         
   323     0.166457   0.000001  2 I  px               324    -0.000002   0.159482  2 I  py         
    99     0.159482   0.000001  2 I  pz               314    -0.123193   0.000000  2 I  px         

 Vector    8  Occ=1.000000D+00  E=-5.223984D+00
              MO Center=  6.1D-01, -3.2D-05, -9.3D-06, r^2= 7.5D-01
  Bfn.         Coefficient        Function           Bfn.         Coefficient        Function  
  ----     -------------------  ------------         ----     -------------------  ------------
    91     0.300553  -0.021433  2 I  px                92    -0.020828  -0.292029  2 I  py         
   319    -0.292029   0.020826  2 I  pz                94     0.268072  -0.019119  2 I  px         
   322    -0.259256   0.018489  2 I  pz                95    -0.018488  -0.259256  2 I  py         
    97     0.166035  -0.011840  2 I  px                98    -0.011346  -0.159078  2 I  py         
   325    -0.159078   0.011345  2 I  pz                88    -0.122881   0.008762  2 I  px         

 Vector    9  Occ=1.000000D+00  E=-4.818101D+00
              MO Center=  3.0D-01, -1.0D-09, -8.9D-07, r^2= 4.7D-01
  Bfn.         Coefficient        Function           Bfn.         Coefficient        Function  
  ----     -------------------  ------------         ----     -------------------  ------------
   320    -0.379573   0.000002  2 I  px               317    -0.375703   0.000001  2 I  px         
   323    -0.255803   0.000001  2 I  px               314     0.213153   0.000000  2 I  px         
    96     0.196424  -0.000001  2 I  pz               321    -0.000001   0.196424  2 I  py         
   318     0.000002   0.195504  2 I  py                93     0.195504  -0.000001  2 I  pz         
   324     0.000001   0.131110  2 I  py                99     0.131110  -0.000001  2 I  pz         

 Vector   10  Occ=1.000000D+00  E=-4.818101D+00
              MO Center=  1.1D+00, -6.6D-05,  8.9D-07, r^2= 8.3D-01
  Bfn.         Coefficient        Function           Bfn.         Coefficient        Function  
  ----     -------------------  ------------         ----     -------------------  ------------
    94     0.371486   0.077933  2 I  px                91     0.367699   0.077136  2 I  px         
    97     0.250354   0.052520  2 I  px                88    -0.208613  -0.043763  2 I  px         
   322     0.192239   0.040329  2 I  pz                95    -0.040327   0.192240  2 I  py         
    92    -0.040141   0.191339  2 I  py               319     0.191339   0.040140  2 I  pz         
    98    -0.026919   0.128317  2 I  py               325     0.128317   0.026919  2 I  pz         

 Vector   11  Occ=1.000000D+00  E=-4.808844D+00
              MO Center=  7.4D-01, -1.1D-06,  8.3D-07, r^2= 8.3D-01
  Bfn.         Coefficient        Function           Bfn.         Coefficient        Function  
  ----     -------------------  ------------         ----     -------------------  ------------
   322    -0.126582   0.247614  2 I  pz                95     0.247614   0.126582  2 I  py         
    92     0.245708   0.125607  2 I  py               319    -0.125607   0.245706  2 I  pz         
    98     0.165627   0.084669  2 I  py               325    -0.084669   0.165626  2 I  pz         
   321     0.000259  -0.183122  2 I  py                96     0.183121   0.000257  2 I  pz         
    93     0.181713   0.000257  2 I  pz               318     0.000256  -0.181710  2 I  py         

 Vector   12  Occ=1.000000D+00  E=-4.808844D+00
              MO Center=  8.1D-01, -4.9D-07, -8.3D-07, r^2= 8.5D-01
  Bfn.         Coefficient        Function           Bfn.         Coefficient        Function  
  ----     -------------------  ------------         ----     -------------------  ------------
    96    -0.278093  -0.000131  2 I  pz               321    -0.000131   0.278092  2 I  py         
   318    -0.000131   0.275952  2 I  py                93    -0.275950  -0.000130  2 I  pz         
   324    -0.000088   0.186014  2 I  py                99    -0.186013  -0.000087  2 I  pz         
    95     0.163131   0.083200  2 I  py               322    -0.083200   0.163129  2 I  pz         
   319    -0.082560   0.161875  2 I  pz                92     0.161872   0.082559  2 I  py         

 Vector   13  Occ=1.000000D+00  E=-4.253086D+00
              MO Center= -1.8D-01,  2.9D-10,  6.3D-08, r^2= 2.1D-01
  Bfn.         Coefficient        Function           Bfn.         Coefficient        Function  
  ----     -------------------  ------------         ----     -------------------  ------------
   244    -0.510039   0.000000  1 At px               241    -0.439390   0.000000  1 At px         
   238     0.321011  -0.000000  1 At px                20     0.252761  -0.000000  1 At pz         
   245    -0.000000   0.252761  1 At py                17     0.227761  -0.000000  1 At pz         
   242    -0.000000   0.227761  1 At py                14    -0.163596   0.000000  1 At pz         
   239     0.000000  -0.163596  1 At py               235    -0.126161   0.000000  1 At px         

 Vector   14  Occ=1.000000D+00  E=-4.253086D+00
              MO Center= -7.0D-01, -2.6D-05, -6.1D-08, r^2= 4.5D-01
  Bfn.         Coefficient        Function           Bfn.         Coefficient        Function  
  ----     -------------------  ------------         ----     -------------------  ------------
    18     0.500816  -0.096555  1 At px                15     0.431444  -0.083181  1 At px         
    12    -0.315206   0.060770  1 At px               246     0.248191  -0.047850  1 At pz         
    19     0.047850   0.248191  1 At py               243     0.223643  -0.043117  1 At pz         
    16     0.043117   0.223643  1 At py               240    -0.160638   0.030970  1 At pz         
    13    -0.030970  -0.160638  1 At py                 9     0.123879  -0.023883  1 At px         

 Vector   15  Occ=1.000000D+00  E=-4.241597D+00
              MO Center= -5.4D-01,  5.6D-09,  3.3D-08, r^2= 4.3D-01
  Bfn.         Coefficient        Function           Bfn.         Coefficient        Function  
  ----     -------------------  ------------         ----     -------------------  ------------
    20    -0.435796  -0.000135  1 At pz               245    -0.000135   0.435796  1 At py         
    17    -0.388239  -0.000120  1 At pz               242    -0.000120   0.388239  1 At py         
    14     0.280819   0.000087  1 At pz               239     0.000087  -0.280819  1 At py         
    11    -0.110272  -0.000034  1 At pz               236    -0.000034   0.110272  1 At py         

 Vector   16  Occ=1.000000D+00  E=-4.241597D+00
              MO Center= -5.0D-01,  3.9D-06, -3.2D-08, r^2= 4.2D-01
  Bfn.         Coefficient        Function           Bfn.         Coefficient        Function  
  ----     -------------------  ------------         ----     -------------------  ------------
   246    -0.121360   0.418557  1 At pz                19     0.418557   0.121360  1 At py         
   243    -0.108116   0.372881  1 At pz                16     0.372882   0.108116  1 At py         
   240     0.078202  -0.269710  1 At pz                13    -0.269710  -0.078202  1 At py         
   237    -0.030708   0.105910  1 At pz                10     0.105910   0.030708  1 At py         

 Vector   17  Occ=1.000000D+00  E=-1.998525D+00
              MO Center=  7.2D-01,  4.9D-07,  3.7D-06, r^2= 8.5D-01
  Bfn.         Coefficient        Function           Bfn.         Coefficient        Function  
  ----     -------------------  ------------         ----     -------------------  ------------
   156    -0.173380  -0.009087  2 I  d  2             151    -0.172096  -0.009020  2 I  d  2       
   152    -0.008471   0.161617  2 I  d -2             381    -0.161616  -0.008471  2 I  d  1       
   376    -0.160729  -0.008424  2 I  d  1             147    -0.008424   0.160728  2 I  d -2       
   161    -0.115320  -0.006044  2 I  d  2             386    -0.107276  -0.005623  2 I  d  1       
   157    -0.005623   0.107276  2 I  d -2             154     0.100100   0.005246  2 I  d  0       

 Vector   18  Occ=1.000000D+00  E=-1.998525D+00
              MO Center=  5.3D-01,  7.9D-08, -3.7D-06, r^2= 7.2D-01
  Bfn.         Coefficient        Function           Bfn.         Coefficient        Function  
  ----     -------------------  ------------         ----     -------------------  ------------
   382     0.173618   0.000001  2 I  d  2             377     0.172332   0.000000  2 I  d  2       
   378    -0.000000   0.161839  2 I  d -2             155    -0.161838  -0.000000  2 I  d  1       
   150    -0.160949  -0.000001  2 I  d  1             373    -0.000001   0.160948  2 I  d -2       
   387     0.115478   0.000000  2 I  d  2             160    -0.107424  -0.000000  2 I  d  1       
   383    -0.000000   0.107423  2 I  d -2             380    -0.100238  -0.000000  2 I  d  0       

 Vector   19  Occ=1.000000D+00  E=-1.987658D+00
              MO Center=  4.0D-01, -3.5D-06, -4.2D-05, r^2= 5.9D-01
  Bfn.         Coefficient        Function           Bfn.         Coefficient        Function  
  ----     -------------------  ------------         ----     -------------------  ------------
   153    -0.000004  -0.152230  2 I  d -1             148    -0.000004  -0.151942  2 I  d -1       
   380    -0.131836   0.000003  2 I  d  0             375    -0.131584   0.000003  2 I  d  0       
   379     0.012473  -0.124805  2 I  d -1             374     0.012449  -0.124562  2 I  d -1       
   154    -0.108081  -0.010802  2 I  d  0             149    -0.107877  -0.010781  2 I  d  0       
   158    -0.000003  -0.100911  2 I  d -1             378    -0.000002  -0.093676  2 I  d -2       

 Vector   20  Occ=1.000000D+00  E=-1.987658D+00
              MO Center=  4.7D-01, -5.1D-06,  4.2D-05, r^2= 6.7D-01
  Bfn.         Coefficient        Function           Bfn.         Coefficient        Function  
  ----     -------------------  ------------         ----     -------------------  ------------
   379    -0.015160   0.151473  2 I  d -1             374    -0.015131   0.151187  2 I  d -1       
   154     0.131181   0.013129  2 I  d  0             149     0.130930   0.013104  2 I  d  0       
   153     0.000015  -0.125426  2 I  d -1             148     0.000014  -0.125182  2 I  d -1       
   380    -0.108620  -0.000012  2 I  d  0             375    -0.108414  -0.000012  2 I  d  0       
   384    -0.010049   0.100409  2 I  d -1             152     0.009329  -0.093210  2 I  d -2       

 Vector   21  Occ=1.000000D+00  E=-1.937772D+00
              MO Center=  8.0D-01,  1.8D-07, -1.0D-06, r^2= 8.8D-01
  Bfn.         Coefficient        Function           Bfn.         Coefficient        Function  
  ----     -------------------  ------------         ----     -------------------  ------------
   156    -0.178394  -0.019779  2 I  d  2             151    -0.175183  -0.019423  2 I  d  2       
   152     0.014137  -0.127506  2 I  d -2             381     0.127504   0.014137  2 I  d  1       
   376     0.125432   0.013907  2 I  d  1             147     0.013907  -0.125431  2 I  d -2       
   161    -0.121807  -0.013505  2 I  d  2             382     0.117468  -0.000000  2 I  d  2       
   377     0.115357   0.000000  2 I  d  2             154     0.102995   0.011420  2 I  d  0       

 Vector   22  Occ=1.000000D+00  E=-1.937772D+00
              MO Center=  5.6D-01,  7.5D-08,  1.0D-06, r^2= 7.5D-01
  Bfn.         Coefficient        Function           Bfn.         Coefficient        Function  
  ----     -------------------  ------------         ----     -------------------  ------------
   382    -0.179487   0.000000  2 I  d  2             377    -0.176256   0.000001  2 I  d  2       
   378     0.000000   0.128287  2 I  d -2             155    -0.128286   0.000000  2 I  d  1       
   150    -0.126201   0.000000  2 I  d  1             373     0.000000   0.126199  2 I  d -2       
   387    -0.122553   0.000000  2 I  d  2             156    -0.116752  -0.012945  2 I  d  2       
   151    -0.114655  -0.012712  2 I  d  2             380     0.103626  -0.000000  2 I  d  0       

 Vector   23  Occ=1.000000D+00  E=-1.932444D+00
              MO Center=  3.0D-01, -7.2D-06, -2.7D-05, r^2= 4.8D-01
  Bfn.         Coefficient        Function           Bfn.         Coefficient        Function  
  ----     -------------------  ------------         ----     -------------------  ------------
   381     0.181954  -0.020447  2 I  d  1             152     0.020446   0.181953  2 I  d -2       
   147     0.020095   0.178832  2 I  d -2             376     0.178830  -0.020095  2 I  d  1       
   157     0.013959   0.124219  2 I  d -2             386     0.124218  -0.013959  2 I  d  1       
   379     0.012532   0.111530  2 I  d -1             374     0.012387   0.110232  2 I  d -1       
   371     0.099684  -0.011202  2 I  d  1             142     0.011202   0.099683  2 I  d -2       

 Vector   24  Occ=1.000000D+00  E=-1.932444D+00
              MO Center=  5.7D-01, -1.2D-06,  2.7D-05, r^2= 7.6D-01
  Bfn.         Coefficient        Function           Bfn.         Coefficient        Function  
  ----     -------------------  ------------         ----     -------------------  ------------
   155    -0.183100   0.000028  2 I  d  1             378    -0.000029  -0.183098  2 I  d -2       
   373    -0.000028  -0.179957  2 I  d -2             150    -0.179956   0.000028  2 I  d  1       
   383    -0.000020  -0.125001  2 I  d -2             160    -0.125000   0.000019  2 I  d  1       
   153     0.000018   0.112232  2 I  d -1             148     0.000017   0.110926  2 I  d -1       
   145    -0.100312   0.000016  2 I  d  1             368    -0.000016  -0.100310  2 I  d -2       

 Vector   25  Occ=1.000000D+00  E=-1.923238D+00
              MO Center=  8.1D-04, -1.8D-09,  2.8D-08, r^2= 1.5D-03
  Bfn.         Coefficient        Function           Bfn.         Coefficient        Function  
  ----     -------------------  ------------         ----     -------------------  ------------
   153     0.000000   0.231933  2 I  d -1             148     0.000000   0.228851  2 I  d -1       
   380    -0.200859   0.000000  2 I  d  0             375    -0.198192   0.000000  2 I  d  0       
   158     0.000000   0.157992  2 I  d -1             385    -0.136826   0.000000  2 I  d  0       
   143     0.000000   0.127629  2 I  d -1             382    -0.115966   0.000000  2 I  d  2       
   377    -0.114426   0.000000  2 I  d  2             370    -0.110529   0.000000  2 I  d  0       

 Vector   26  Occ=1.000000D+00  E=-1.923238D+00
              MO Center=  1.5D-01, -3.5D-07, -2.9D-08, r^2= 2.7D-01
  Bfn.         Coefficient        Function           Bfn.         Coefficient        Function  
  ----     -------------------  ------------         ----     -------------------  ------------
   379    -0.210393   0.097609  2 I  d -1             374    -0.207598   0.096312  2 I  d -1       
   154    -0.084532  -0.182206  2 I  d  0             149    -0.083409  -0.179785  2 I  d  0       
   384    -0.143319   0.066491  2 I  d -1             159    -0.057583  -0.124119  2 I  d  0       
   369    -0.115776   0.053713  2 I  d -1             156    -0.048804  -0.105197  2 I  d  2       
   151    -0.048156  -0.103799  2 I  d  2             144    -0.046516  -0.100264  2 I  d  0       

 Vector   27  Occ=1.000000D+00  E=-1.668177D+00
              MO Center= -3.5D-01, -6.9D-06, -2.5D-09, r^2= 3.8D-01
  Bfn.         Coefficient        Function           Bfn.         Coefficient        Function  
  ----     -------------------  ------------         ----     -------------------  ------------
    46    -0.143180  -0.246834  1 At d  2              42    -0.236674   0.137287  1 At d -2       
   271    -0.137287  -0.236674  1 At d  1              41    -0.092307  -0.159132  1 At d  2       
    37    -0.154026   0.089345  1 At d -2             266    -0.089345  -0.154026  1 At d  1       
    44     0.082665   0.142510  1 At d  0              51    -0.078849  -0.135931  1 At d  2       
    47    -0.130224   0.075538  1 At d -2             276    -0.075539  -0.130224  1 At d  1       

 Vector   28  Occ=1.000000D+00  E=-1.668177D+00
              MO Center= -3.1D-01, -8.8D-13,  2.9D-09, r^2= 3.6D-01
  Bfn.         Coefficient        Function           Bfn.         Coefficient        Function  
  ----     -------------------  ------------         ----     -------------------  ------------
   272    -0.285355   0.000000  1 At d  2             268    -0.000000  -0.273610  1 At d -2       
    45     0.273610   0.000000  1 At d  1             267    -0.183966   0.000000  1 At d  2       
   263    -0.000000  -0.178063  1 At d -2              40     0.178063   0.000000  1 At d  1       
   270     0.164750   0.000000  1 At d  0             277    -0.157144   0.000000  1 At d  2       
   273    -0.000000  -0.150547  1 At d -2              50     0.150547   0.000000  1 At d  1       

 Vector   29  Occ=1.000000D+00  E=-1.653809D+00
              MO Center= -3.5D-01,  1.5D-05,  6.2D-05, r^2= 3.9D-01
  Bfn.         Coefficient        Function           Bfn.         Coefficient        Function  
  ----     -------------------  ------------         ----     -------------------  ------------
   269    -0.032960   0.278711  1 At d -1              44     0.241371   0.028544  1 At d  0       
   264    -0.021567   0.182374  1 At d -1              39     0.157940   0.018678  1 At d  0       
    42     0.018544  -0.156811  1 At d -2             271    -0.156811  -0.018544  1 At d  1       
   274    -0.018101   0.153061  1 At d -1              46     0.139355   0.016480  1 At d  2       
    43     0.000001   0.138889  1 At d -1              49     0.132554   0.015676  1 At d  0       

 Vector   30  Occ=1.000000D+00  E=-1.653809D+00
              MO Center= -1.8D-01,  3.6D-06, -6.2D-05, r^2= 2.3D-01
  Bfn.         Coefficient        Function           Bfn.         Coefficient        Function  
  ----     -------------------  ------------         ----     -------------------  ------------
    43    -0.000004   0.280653  1 At d -1             270     0.243053   0.000004  1 At d  0       
    38    -0.000003   0.183645  1 At d -1             265     0.159041   0.000003  1 At d  0       
   268    -0.000002   0.157904  1 At d -2              45     0.157904   0.000003  1 At d  1       
    48    -0.000002   0.154127  1 At d -1             272     0.140327   0.000002  1 At d  2       
   269     0.016315  -0.137927  1 At d -1             275     0.133478   0.000002  1 At d  0       

 Vector   31  Occ=1.000000D+00  E=-1.524654D+00
              MO Center= -3.8D-01,  1.7D-05, -7.6D-09, r^2= 4.1D-01
  Bfn.         Coefficient        Function           Bfn.         Coefficient        Function  
  ----     -------------------  ------------         ----     -------------------  ------------
    46    -0.213512   0.274399  1 At d  2             271     0.148094  -0.190326  1 At d  1       
    42    -0.190326  -0.148094  1 At d -2              44     0.123271  -0.158425  1 At d  0       
    51    -0.120762   0.155200  1 At d  2              41    -0.111326   0.143073  1 At d  2       
   276     0.083872  -0.107790  1 At d  1              47    -0.107790  -0.083872  1 At d -2       
   266     0.078203  -0.100504  1 At d  1              37    -0.100504  -0.078203  1 At d -2       

 Vector   32  Occ=1.000000D+00  E=-1.524654D+00
              MO Center= -2.3D-01, -9.3D-11,  7.9D-09, r^2= 2.8D-01
  Bfn.         Coefficient        Function           Bfn.         Coefficient        Function  
  ----     -------------------  ------------         ----     -------------------  ------------
   272    -0.347682  -0.000000  1 At d  2              45    -0.241155   0.000000  1 At d  1       
   268    -0.000000   0.241155  1 At d -2             270     0.200734  -0.000000  1 At d  0       
   277    -0.196648  -0.000000  1 At d  2             267    -0.181283  -0.000000  1 At d  2       
    50    -0.136577   0.000000  1 At d  1             273    -0.000000   0.136577  1 At d -2       
    40    -0.127345   0.000000  1 At d  1             263    -0.000000   0.127345  1 At d -2       

 Vector   33  Occ=1.000000D+00  E=-1.517800D+00
              MO Center= -4.1D-01,  3.8D-08,  6.2D-06, r^2= 4.4D-01
  Bfn.         Coefficient        Function           Bfn.         Coefficient        Function  
  ----     -------------------  ------------         ----     -------------------  ------------
    45     0.324804  -0.000008  1 At d  1             268     0.000007   0.324804  1 At d -2       
    50     0.184307  -0.000004  1 At d  1             273     0.000004   0.184307  1 At d -2       
    43    -0.000005  -0.181197  1 At d -1              40     0.169612  -0.000004  1 At d  1       
   263     0.000004   0.169612  1 At d -2             270    -0.156922   0.000004  1 At d  0       
    48    -0.000003  -0.102423  1 At d -1              38    -0.000002  -0.097545  1 At d -1       

 Vector   34  Occ=1.000000D+00  E=-1.517800D+00
              MO Center= -1.4D-01,  1.8D-05, -6.2D-06, r^2= 1.8D-01
  Bfn.         Coefficient        Function           Bfn.         Coefficient        Function  
  ----     -------------------  ------------         ----     -------------------  ------------
   271     0.321613  -0.045420  1 At d  1              42     0.045421   0.321613  1 At d -2       
   276     0.182496  -0.025773  1 At d  1              47     0.025774   0.182496  1 At d -2       
   269     0.025338   0.179417  1 At d -1             266     0.167945  -0.023718  1 At d  1       
    37     0.023719   0.167945  1 At d -2              44     0.155380  -0.021944  1 At d  0       
   274     0.014323   0.101417  1 At d -1             264     0.013640   0.096586  1 At d -1       

 Vector   35  Occ=1.000000D+00  E=-1.505801D+00
              MO Center= -9.5D-04, -1.4D-09, -2.3D-10, r^2= 1.4D-03
  Bfn.         Coefficient        Function           Bfn.         Coefficient        Function  
  ----     -------------------  ------------         ----     -------------------  ------------
   269     0.367355   0.015576  1 At d -1              44    -0.013489   0.318139  1 At d  0       
   274     0.208346   0.008834  1 At d -1             264     0.193933   0.008223  1 At d -1       
    46    -0.007788   0.183678  1 At d  2              49    -0.007650   0.180433  1 At d  0       
    39    -0.007121   0.167951  1 At d  0              51    -0.004417   0.104173  1 At d  2       
    41    -0.004111   0.096966  1 At d  2              43     0.000001  -0.056819  1 At d -1       

 Vector   36  Occ=1.000000D+00  E=-1.505801D+00
              MO Center= -2.3D-05, -3.2D-11,  2.2D-10, r^2= 3.3D-05
  Bfn.         Coefficient        Function           Bfn.         Coefficient        Function  
  ----     -------------------  ------------         ----     -------------------  ------------
    43     0.000000  -0.367685  1 At d -1             270     0.318425   0.000000  1 At d  0       
    48     0.000000  -0.208533  1 At d -1              38     0.000000  -0.194107  1 At d -1       
   272     0.183843   0.000000  1 At d  2             275     0.180595   0.000000  1 At d  0       
   265     0.168101   0.000000  1 At d  0             277     0.104267   0.000000  1 At d  2       
   267     0.097053   0.000000  1 At d  2             269    -0.056768  -0.002406  1 At d -1       

 Vector   37  Occ=1.000000D+00  E=-8.045921D-01
              MO Center= -4.9D-01, -2.6D-03,  1.4D-06, r^2= 1.3D+00
  Bfn.         Coefficient        Function           Bfn.         Coefficient        Function  
  ----     -------------------  ------------         ----     -------------------  ------------
     7     0.707232  -0.515167  1 At s                  5    -0.631143   0.459742  1 At s          
     4     0.419169  -0.305334  1 At s                  8     0.297605  -0.216783  1 At s          
     6    -0.216326   0.157578  1 At s                  3    -0.199586   0.145384  1 At s          
    71     0.139023  -0.101268  2 I  s                 70     0.119215  -0.086840  2 I  s          
    65     0.115726  -0.084298  2 I  s                 68    -0.111971   0.081563  2 I  s          

 Vector   38  Occ=1.000000D+00  E=-8.045921D-01
              MO Center= -2.0D-05, -2.8D-10, -1.4D-06, r^2= 8.0D-05
  Bfn.         Coefficient        Function           Bfn.         Coefficient        Function  
  ----     -------------------  ------------         ----     -------------------  ------------
   233    -0.874971  -0.000000  1 At s                231     0.780836   0.000000  1 At s          
   230    -0.518586  -0.000000  1 At s                234    -0.368190   0.000000  1 At s          
   232     0.267634   0.000000  1 At s                229     0.246923   0.000000  1 At s          
   297    -0.171996  -0.000000  2 I  s                296    -0.147490   0.000000  2 I  s          
   291    -0.143174  -0.000000  2 I  s                294     0.138528   0.000000  2 I  s          

 Vector   39  Occ=1.000000D+00  E=-6.945291D-01
              MO Center= -1.9D-04, -1.8D-08, -4.3D-06, r^2= 3.8D-04
  Bfn.         Coefficient        Function           Bfn.         Coefficient        Function  
  ----     -------------------  ------------         ----     -------------------  ------------
   296     0.544537  -0.000000  2 I  s                297     0.501969  -0.000000  2 I  s          
   294    -0.473666  -0.000000  2 I  s                291     0.472636   0.000000  2 I  s          
   293    -0.395246   0.000000  2 I  s                233    -0.330685   0.000000  1 At s          
   231     0.302231  -0.000000  1 At s                292    -0.280044  -0.000000  2 I  s          
   230    -0.197785   0.000000  1 At s                234    -0.175165   0.000000  1 At s          

 Vector   40  Occ=1.000000D+00  E=-6.945291D-01
              MO Center=  4.6D-02, -1.0D-03,  4.3D-06, r^2= 1.4D-01
  Bfn.         Coefficient        Function           Bfn.         Coefficient        Function  
  ----     -------------------  ------------         ----     -------------------  ------------
    70     0.101698   0.534956  2 I  s                 71     0.093748   0.493137  2 I  s          
    68    -0.088463  -0.465332  2 I  s                 65     0.088270   0.464320  2 I  s          
    67    -0.073817  -0.388291  2 I  s                  7    -0.061759  -0.324866  1 At s          
     5     0.056445   0.296914  1 At s                 66    -0.052301  -0.275117  2 I  s          
     4    -0.036939  -0.194305  1 At s                  8    -0.032714  -0.172083  1 At s          

 Vector   41  Occ=1.000000D+00  E=-4.035462D-01
              MO Center= -3.7D-02,  2.3D-03,  2.7D-04, r^2= 2.5D+00
  Bfn.         Coefficient        Function           Bfn.         Coefficient        Function  
  ----     -------------------  ------------         ----     -------------------  ------------
    21    -0.448684   0.042911  1 At px               249     0.309896  -0.029638  1 At pz         
    22     0.029638   0.309896  1 At py                15     0.269269  -0.025752  1 At px         
   103     0.217494  -0.020800  2 I  px                24    -0.211358   0.020214  1 At px         
   243    -0.201333   0.019255  1 At pz                16    -0.019255  -0.201333  1 At py         
    70     0.188411  -0.018019  2 I  s                106     0.166552  -0.015929  2 I  px         

 Vector   42  Occ=1.000000D+00  E=-4.035462D-01
              MO Center= -1.8D-01,  2.9D-07, -2.7D-04, r^2= 4.7D-01
  Bfn.         Coefficient        Function           Bfn.         Coefficient        Function  
  ----     -------------------  ------------         ----     -------------------  ------------
   247    -0.450731  -0.000000  1 At px                23    -0.311310  -0.000000  1 At pz         
   248    -0.000000  -0.311310  1 At py               241     0.270498   0.000000  1 At px         
   329     0.218487  -0.000000  2 I  px               250    -0.212322   0.000000  1 At px         
    17     0.202251   0.000000  1 At pz               242     0.000000   0.202251  1 At py         
   296     0.189271   0.000000  2 I  s                332     0.167312   0.000000  2 I  px         

 Vector   43  Occ=1.000000D+00  E=-3.393902D-01
              MO Center=  1.3D-01, -4.8D-06,  8.9D-04, r^2= 1.3D+00
  Bfn.         Coefficient        Function           Bfn.         Coefficient        Function  
  ----     -------------------  ------------         ----     -------------------  ------------
   248     0.000001  -0.267404  1 At py                23    -0.267404  -0.000001  1 At pz         
   329    -0.241932  -0.000001  2 I  px               332    -0.206785  -0.000001  2 I  px         
   330     0.000001  -0.197155  2 I  py               105    -0.197155  -0.000001  2 I  pz         
    26    -0.175289  -0.000001  1 At pz               251     0.000001  -0.175289  1 At py         
   242    -0.000001   0.148266  1 At py                17     0.148266   0.000001  1 At pz         

 Vector   44  Occ=1.000000D+00  E=-3.393902D-01
              MO Center=  4.0D-01, -4.1D-03, -8.9D-04, r^2= 1.2D+00
  Bfn.         Coefficient        Function           Bfn.         Coefficient        Function  
  ----     -------------------  ------------         ----     -------------------  ------------
    22     0.042435   0.264015  1 At py               249     0.264015  -0.042435  1 At pz         
   103    -0.238867   0.038393  2 I  px               106    -0.204164   0.032816  2 I  px         
   104     0.031288   0.194657  2 I  py               331     0.194657  -0.031287  2 I  pz         
   252     0.173068  -0.027817  1 At pz                25     0.027817   0.173068  1 At py         
    16    -0.023529  -0.146387  1 At py               243    -0.146387   0.023529  1 At pz         

 Vector   45  Occ=1.000000D+00  E=-2.964554D-01
              MO Center=  3.4D-01, -1.8D-07, -2.9D-06, r^2= 2.0D+00
  Bfn.         Coefficient        Function           Bfn.         Coefficient        Function  
  ----     -------------------  ------------         ----     -------------------  ------------
   330    -0.000245  -0.254227  2 I  py               105     0.254227  -0.000245  2 I  pz         
   248    -0.000234  -0.242278  1 At py                23     0.242278  -0.000234  1 At pz         
    26     0.213565  -0.000206  1 At pz               251    -0.000206  -0.213565  1 At py         
   108     0.208377  -0.000201  2 I  pz               333    -0.000201  -0.208377  2 I  py         
   321     0.000114   0.117871  2 I  py                96    -0.117871   0.000114  2 I  pz         

 Vector   46  Occ=1.000000D+00  E=-2.964554D-01
              MO Center=  8.7D-02,  1.1D-04,  2.9D-06, r^2= 5.2D-01
  Bfn.         Coefficient        Function           Bfn.         Coefficient        Function  
  ----     -------------------  ------------         ----     -------------------  ------------
   104    -0.128380  -0.219430  2 I  py               331     0.219430  -0.128380  2 I  pz         
    22    -0.122346  -0.209117  1 At py               249     0.209117  -0.122346  1 At pz         
   252     0.184334  -0.107847  1 At pz                25    -0.107847  -0.184334  1 At py         
   334     0.179856  -0.105227  2 I  pz               107    -0.105227  -0.179856  2 I  py         
    95     0.059523   0.101738  2 I  py               322    -0.101738   0.059523  2 I  pz         

 Vector   47  Occ=1.000000D+00  E=-2.759961D-01
              MO Center=  4.1D-01, -1.5D-06, -7.3D-05, r^2= 1.9D+00
  Bfn.         Coefficient        Function           Bfn.         Coefficient        Function  
  ----     -------------------  ------------         ----     -------------------  ------------
   330     0.000036  -0.266972  2 I  py               105    -0.266972  -0.000037  2 I  pz         
    23     0.249898   0.000034  1 At pz               248    -0.000034   0.249898  1 At py         
   108    -0.224679  -0.000031  2 I  pz               333     0.000031  -0.224679  2 I  py         
    26     0.195467   0.000027  1 At pz               251    -0.000027   0.195467  1 At py         
   332     0.154856   0.000020  2 I  px               329     0.146878   0.000021  2 I  px         

 Vector   48  Occ=1.000000D+00  E=-2.759961D-01
              MO Center=  3.6D-01, -2.7D-03,  7.3D-05, r^2= 1.6D+00
  Bfn.         Coefficient        Function           Bfn.         Coefficient        Function  
  ----     -------------------  ------------         ----     -------------------  ------------
   104     0.237681  -0.121580  2 I  py               331    -0.121580  -0.237681  2 I  pz         
   249     0.113804   0.222481  1 At pz                22    -0.222481   0.113804  1 At py         
   334    -0.102320  -0.200028  2 I  pz               107     0.200028  -0.102320  2 I  py         
   252     0.089017   0.174022  1 At pz                25    -0.174022   0.089016  1 At py         
   106    -0.070521  -0.137866  2 I  px               103    -0.066890  -0.130763  2 I  px         

 Vector   49  Occ=1.000000D+00  E=-2.364908D-01
              MO Center= -2.0D-02,  4.9D-08,  4.7D-06, r^2= 2.2D+00
  Bfn.         Coefficient        Function           Bfn.         Coefficient        Function  
  ----     -------------------  ------------         ----     -------------------  ------------
   251    -0.000087   0.361379  1 At py                26    -0.361379  -0.000087  1 At pz         
    23    -0.335133  -0.000080  1 At pz               248    -0.000080   0.335133  1 At py         
   330     0.000048  -0.201036  2 I  py               105     0.201036   0.000048  2 I  pz         
   108     0.198031   0.000047  2 I  pz               333     0.000047  -0.198031  2 I  py         
    17     0.160556   0.000038  1 At pz               242     0.000038  -0.160556  1 At py         

 Vector   50  Occ=1.000000D+00  E=-2.364908D-01
              MO Center= -8.5D-03,  1.0D-04, -4.6D-06, r^2= 9.4D-01
  Bfn.         Coefficient        Function           Bfn.         Coefficient        Function  
  ----     -------------------  ------------         ----     -------------------  ------------
    25    -0.236843   0.272948  1 At py               252    -0.272948  -0.236843  1 At pz         
   249    -0.253124  -0.219641  1 At pz                22    -0.219641   0.253124  1 At py         
   104     0.131756  -0.151841  2 I  py               331     0.151841   0.131756  2 I  pz         
   334     0.149572   0.129787  2 I  pz               107     0.129787  -0.149572  2 I  py         
   243     0.121267   0.105226  1 At pz                16     0.105226  -0.121267  1 At py         

 Vector   51  Occ=0.000000D+00  E=-1.323134D-01
              MO Center=  1.1D-01, -2.4D-03,  7.1D-05, r^2= 4.9D+00
  Bfn.         Coefficient        Function           Bfn.         Coefficient        Function  
  ----     -------------------  ------------         ----     -------------------  ------------
    24    -0.659783   0.068616  1 At px               106    -0.454632   0.047281  2 I  px         
    21    -0.440613   0.045823  1 At px               103    -0.255437   0.026565  2 I  px         
     8    -0.241265   0.025091  1 At s                 15     0.226222  -0.023527  1 At px         
    71     0.200256  -0.020826  2 I  s                100    -0.191149   0.019879  2 I  px         
   109    -0.186466   0.019392  2 I  px                68    -0.169975   0.017677  2 I  s          

 Vector   52  Occ=0.000000D+00  E=-1.323134D-01
              MO Center= -3.9D-02, -2.3D-08, -7.1D-05, r^2= 1.6D-01
  Bfn.         Coefficient        Function           Bfn.         Coefficient        Function  
  ----     -------------------  ------------         ----     -------------------  ------------
   250     0.663342   0.000000  1 At px               332     0.457083   0.000000  2 I  px         
   247     0.442989  -0.000000  1 At px               329     0.256815  -0.000000  2 I  px         
   234     0.242566   0.000000  1 At s                241    -0.227442   0.000000  1 At px         
   297    -0.201336  -0.000000  2 I  s                326     0.192180   0.000000  2 I  px         
   335     0.187471  -0.000000  2 I  px               294     0.170892   0.000000  2 I  s          

 Vector   53  Occ=0.000000D+00  E= 7.369806D-02
              MO Center=  4.6D-02,  2.0D-02, -1.6D-05, r^2= 4.4D-01
  Bfn.         Coefficient        Function           Bfn.         Coefficient        Function  
  ----     -------------------  ------------         ----     -------------------  ------------
    71    -0.871740   3.520902  2 I  s                 72     0.700405  -2.828891  2 I  s          
    70     0.538498  -2.174957  2 I  s                 69    -0.403096   1.628079  2 I  s          
   109    -0.304474   1.229752  2 I  px                68     0.280883  -1.134471  2 I  s          
   106     0.137297  -0.554532  2 I  px                67    -0.135330   0.546589  2 I  s          
    66     0.133906  -0.540839  2 I  s                  8    -0.113450   0.458216  1 At s          

 Vector   54  Occ=0.000000D+00  E= 7.369806D-02
              MO Center=  2.4D-03,  1.2D-08,  1.6D-05, r^2= 1.8D-02
  Bfn.         Coefficient        Function           Bfn.         Coefficient        Function  
  ----     -------------------  ------------         ----     -------------------  ------------
   297    -3.627214  -0.000000  2 I  s                298     2.914308   0.000000  2 I  s          
   296     2.240629   0.000000  2 I  s                295    -1.677238  -0.000000  2 I  s          
   335    -1.266884   0.000000  2 I  px               294     1.168725   0.000000  2 I  s          
   332     0.571276  -0.000000  2 I  px               293    -0.563093  -0.000000  2 I  s          
   292     0.557170   0.000000  2 I  s                234    -0.472052   0.000000  1 At s          

 Vector   55  Occ=0.000000D+00  E= 8.234089D-02
              MO Center=  2.7D+00, -6.9D-02,  9.1D-04, r^2= 6.8D+00
  Bfn.         Coefficient        Function           Bfn.         Coefficient        Function  
  ----     -------------------  ------------         ----     -------------------  ------------
    71    -1.997285   0.712334  2 I  s                 72     1.702066  -0.607044  2 I  s          
   109     1.392123  -0.496502  2 I  px               106    -1.322332   0.471611  2 I  px         
    70     0.998065  -0.355961  2 I  s                 69    -0.850267   0.303248  2 I  s          
    68     0.649116  -0.231507  2 I  s                103     0.469658  -0.167504  2 I  px         
   100    -0.429064   0.153026  2 I  px                66     0.315027  -0.112354  2 I  s          

 Vector   56  Occ=0.000000D+00  E= 8.234089D-02
              MO Center=  3.3D-02, -1.4D-06, -9.1D-04, r^2= 2.4D-01
  Bfn.         Coefficient        Function           Bfn.         Coefficient        Function  
  ----     -------------------  ------------         ----     -------------------  ------------
   297    -2.120511   0.000000  2 I  s                298     1.807077  -0.000000  2 I  s          
   335     1.478012  -0.000001  2 I  px               332    -1.403916   0.000001  2 I  px         
   296     1.059642  -0.000000  2 I  s                295    -0.902726   0.000001  2 I  s          
   294     0.689164  -0.000001  2 I  s                329     0.498634  -0.000000  2 I  px         
   326    -0.455536   0.000000  2 I  px               292     0.334463  -0.000001  2 I  s          

 Vector   57  Occ=0.000000D+00  E= 9.729869D-02
              MO Center=  9.2D-01,  3.7D-05,  1.5D-03, r^2= 5.6D+00
  Bfn.         Coefficient        Function           Bfn.         Coefficient        Function  
  ----     -------------------  ------------         ----     -------------------  ------------
   111     1.280775   0.000007  2 I  pz               336    -0.000007   1.280775  2 I  py         
   108    -1.079932  -0.000006  2 I  pz               333     0.000006  -1.079932  2 I  py         
   332     0.418493   0.000002  2 I  px               102    -0.374325  -0.000002  2 I  pz         
   327     0.000002  -0.374325  2 I  py               105     0.362405   0.000002  2 I  pz         
   330    -0.000002   0.362405  2 I  py               335    -0.345610  -0.000002  2 I  px         

 Vector   58  Occ=0.000000D+00  E= 9.729869D-02
              MO Center=  8.0D-01,  5.0D-02, -1.5D-03, r^2= 4.9D+00
  Bfn.         Coefficient        Function           Bfn.         Coefficient        Function  
  ----     -------------------  ------------         ----     -------------------  ------------
   337     0.501396  -1.178553  2 I  pz               110     1.178553   0.501396  2 I  py         
   334    -0.422770   0.993739  2 I  pz               107    -0.993739  -0.422770  2 I  py         
   106    -0.163831   0.385091  2 I  px               328    -0.146540   0.344449  2 I  pz         
   101    -0.344449  -0.146540  2 I  py               331     0.141874  -0.333481  2 I  pz         
   104     0.333481   0.141874  2 I  py               109     0.135299  -0.318026  2 I  px         

 Vector   59  Occ=0.000000D+00  E= 1.014208D-01
              MO Center=  9.8D-01, -3.9D-07,  2.0D-05, r^2= 5.8D+00
  Bfn.         Coefficient        Function           Bfn.         Coefficient        Function  
  ----     -------------------  ------------         ----     -------------------  ------------
   336     0.000224  -1.320634  2 I  py               111     1.320634   0.000224  2 I  pz         
   333    -0.000193   1.141911  2 I  py               108    -1.141911  -0.000193  2 I  pz         
   330     0.000065  -0.384370  2 I  py               105     0.384370   0.000065  2 I  pz         
   102    -0.383863  -0.000065  2 I  pz               327    -0.000065   0.383863  2 I  py         
    99     0.226192   0.000038  2 I  pz               324     0.000038  -0.226192  2 I  py         

 Vector   60  Occ=0.000000D+00  E= 1.014208D-01
              MO Center=  2.7D-01, -4.7D-04, -2.0D-05, r^2= 1.8D+00
  Bfn.         Coefficient        Function           Bfn.         Coefficient        Function  
  ----     -------------------  ------------         ----     -------------------  ------------
   110     0.693060  -1.124163  2 I  py               337     1.124163   0.693060  2 I  pz         
   107    -0.599267   0.972028  2 I  py               334    -0.972028  -0.599267  2 I  pz         
   104     0.201715  -0.327187  2 I  py               331     0.327187   0.201715  2 I  pz         
   328    -0.326756  -0.201449  2 I  pz               101    -0.201449   0.326756  2 I  py         
   325     0.192542   0.118704  2 I  pz                98     0.118704  -0.192542  2 I  py         

 Vector   61  Occ=0.000000D+00  E= 1.486343D-01
              MO Center=  5.3D-01,  1.9D-04,  1.7D-03, r^2= 2.5D+00
  Bfn.         Coefficient        Function           Bfn.         Coefficient        Function  
  ----     -------------------  ------------         ----     -------------------  ------------
   175    -0.828587  -0.000035  2 I  d  1             398    -0.000036   0.828585  2 I  d -2       
   170     0.404259   0.000017  2 I  d  1             393     0.000018  -0.404259  2 I  d -2       
   165    -0.403952  -0.000017  2 I  d  1             388    -0.000018   0.403951  2 I  d -2       
   160     0.266226   0.000011  2 I  d  1             383     0.000012  -0.266226  2 I  d -2       
   250    -0.246554  -0.000010  1 At px               298     0.199201   0.000008  2 I  s          

 Vector   62  Occ=0.000000D+00  E= 1.486343D-01
              MO Center=  4.6D-01,  1.4D-02, -1.7D-03, r^2= 2.3D+00
  Bfn.         Coefficient        Function           Bfn.         Coefficient        Function  
  ----     -------------------  ------------         ----     -------------------  ------------
   401     0.304035   0.770791  2 I  d  1             172     0.770789  -0.304036  2 I  d -2       
   396    -0.148336  -0.376061  2 I  d  1             167    -0.376060   0.148336  2 I  d -2       
   391     0.148223   0.375776  2 I  d  1             162     0.375775  -0.148223  2 I  d -2       
   386    -0.097687  -0.247656  2 I  d  1             157    -0.247656   0.097687  2 I  d -2       
    24    -0.090468  -0.229356  1 At px                72     0.073093   0.185306  2 I  s          

 Vector   63  Occ=0.000000D+00  E= 1.525638D-01
              MO Center=  4.9D-01,  1.8D-06, -1.7D-05, r^2= 2.7D+00
  Bfn.         Coefficient        Function           Bfn.         Coefficient        Function  
  ----     -------------------  ------------         ----     -------------------  ------------
   398    -0.000051   0.841099  2 I  d -2             175     0.841098   0.000051  2 I  d  1       
   393     0.000025  -0.414748  2 I  d -2             170    -0.414748  -0.000025  2 I  d  1       
[...]
    90     1.361447   0.000064  2 I  pz               306     0.000049  -1.038928  2 I  py         

 Vector  441  Occ=0.000000D+00  E= 5.716969D+03
              MO Center=  5.8D-02,  4.5D-13, -1.2D-13, r^2= 9.7D-02
  Bfn.         Coefficient        Function           Bfn.         Coefficient        Function  
  ----     -------------------  ------------         ----     -------------------  ------------
    83     0.516752  -2.012781  2 I  py               310     2.012781   0.516748  2 I  pz         
    86    -0.512689   1.996957  2 I  py               313    -1.996958  -0.512685  2 I  pz         
    89     0.411315  -1.602100  2 I  py               316     1.602100   0.411312  2 I  pz         
    80    -0.313935   1.222795  2 I  py               307    -1.222796  -0.313932  2 I  pz         
    92    -0.257150   1.001614  2 I  py               319    -1.001614  -0.257148  2 I  pz         

 Vector  442  Occ=0.000000D+00  E= 5.716969D+03
              MO Center=  4.9D-01,  9.2D-13,  7.2D-12, r^2= 6.1D-01
  Bfn.         Coefficient        Function           Bfn.         Coefficient        Function  
  ----     -------------------  ------------         ----     -------------------  ------------
   309    -1.357976  -1.572966  2 I  py                84     1.572968  -1.357972  2 I  pz         
   312     1.347300   1.560600  2 I  py                87    -1.560602   1.347297  2 I  pz         
   315    -1.080899  -1.252023  2 I  py                90     1.252025  -1.080896  2 I  pz         
   306     0.824991   0.955601  2 I  py                81    -0.955602   0.824989  2 I  pz         
   318     0.675765   0.782750  2 I  py                93    -0.782751   0.675764  2 I  pz         

 Vector  443  Occ=0.000000D+00  E= 5.716986D+03
              MO Center=  1.1D+00,  5.7D-07,  1.7D-11, r^2= 6.9D-01
  Bfn.         Coefficient        Function           Bfn.         Coefficient        Function  
  ----     -------------------  ------------         ----     -------------------  ------------
    82     2.361040  -0.501766  2 I  px                85    -2.343868   0.498117  2 I  px         
    88     1.882259  -0.400016  2 I  px                79    -1.433988   0.304750  2 I  px         
    91    -1.179202   0.250603  2 I  px               310     1.179029  -0.250570  2 I  pz         
    83     0.250563   1.179031  2 I  py               313    -1.169760   0.248600  2 I  pz         
    86    -0.248593  -1.169762  2 I  py                73    -0.989040   0.210190  2 I  px         

 Vector  444  Occ=0.000000D+00  E= 5.716986D+03
              MO Center=  2.9D-01,  2.5D-13, -2.4D-11, r^2= 4.2D-01
  Bfn.         Coefficient        Function           Bfn.         Coefficient        Function  
  ----     -------------------  ------------         ----     -------------------  ------------
   308     2.413768  -0.000056  2 I  px               311    -2.396214   0.000056  2 I  px         
   314     1.924295  -0.000045  2 I  px               305    -1.466013   0.000034  2 I  px         
   317    -1.205537   0.000028  2 I  px               309    -0.000032  -1.205361  2 I  py         
    84    -1.205361   0.000025  2 I  pz               312     0.000031   1.195885  2 I  py         
    87     1.195885  -0.000025  2 I  pz               299    -1.011128   0.000024  2 I  px         

 Vector  445  Occ=0.000000D+00  E= 1.305993D+04
              MO Center=  3.5D-16,  7.2D-26, -7.3D-24, r^2= 3.1D-15
  Bfn.         Coefficient        Function           Bfn.         Coefficient        Function  
  ----     -------------------  ------------         ----     -------------------  ------------
   229     2.785289  -0.000000  1 At s                228    -1.947811   0.000000  1 At s          
   230    -1.332879   0.000000  1 At s                227     1.135792  -0.000000  1 At s          
   231     0.484445  -0.000000  1 At s                232    -0.359657   0.000000  1 At s          
   233     0.148726  -0.000000  1 At s                234    -0.076193   0.000000  1 At s          
   296     0.054893  -0.000000  2 I  s                295    -0.054627   0.000000  2 I  s          

 Vector  446  Occ=0.000000D+00  E= 1.305993D+04
              MO Center= -1.1D+00,  4.1D-13,  7.5D-15, r^2= 2.9D-03
  Bfn.         Coefficient        Function           Bfn.         Coefficient        Function  
  ----     -------------------  ------------         ----     -------------------  ------------
     3     2.785288  -0.002214  1 At s                  2    -1.947811   0.001548  1 At s          
     4    -1.332878   0.001059  1 At s                  1     1.135792  -0.000903  1 At s          
     5     0.484445  -0.000385  1 At s                  6    -0.359657   0.000286  1 At s          
     7     0.148726  -0.000118  1 At s                  8    -0.076193   0.000061  1 At s          
    70     0.054893  -0.000044  2 I  s                 69    -0.054627   0.000043  2 I  s          

 Vector  447  Occ=0.000000D+00  E= 1.791597D+04
              MO Center= -2.3D-17, -7.3D-27, -1.1D-23, r^2= 3.3D-17
  Bfn.         Coefficient        Function           Bfn.         Coefficient        Function  
  ----     -------------------  ------------         ----     -------------------  ------------
   290     6.804246  -0.000000  2 I  s                289    -6.388556   0.000000  2 I  s          
   291    -5.546475   0.000000  2 I  s                292     3.737804  -0.000000  2 I  s          
   288     3.034623  -0.000000  2 I  s                285    -2.136775   0.000000  2 I  s          
   293    -1.927977   0.000000  2 I  s                286     1.403060  -0.000000  2 I  s          
   294     1.100848  -0.000000  2 I  s                287    -0.982834   0.000000  2 I  s          

 Vector  448  Occ=0.000000D+00  E= 1.791597D+04
              MO Center=  9.7D-01, -2.2D-12, -2.4D-13, r^2= 7.4D-01
  Bfn.         Coefficient        Function           Bfn.         Coefficient        Function  
  ----     -------------------  ------------         ----     -------------------  ------------
    64     5.074870  -4.532488  2 I  s                 63    -4.764833   4.255586  2 I  s          
    65    -4.136777   3.694654  2 I  s                 66     2.787799  -2.489850  2 I  s          
    62     2.263340  -2.021443  2 I  s                 59    -1.593690   1.423363  2 I  s          
    67    -1.437960   1.284277  2 I  s                 60     1.046457  -0.934616  2 I  s          
    68     0.821055  -0.733304  2 I  s                 61    -0.733036   0.654692  2 I  s          

 Vector  449  Occ=0.000000D+00  E= 9.279885D+04
              MO Center=  1.2D+00, -1.0D-13, -1.3D-14, r^2= 6.3D-01
  Bfn.         Coefficient        Function           Bfn.         Coefficient        Function  
  ----     -------------------  ------------         ----     -------------------  ------------
    64    -2.605994   1.700850  2 I  s                 63     2.439725  -1.592331  2 I  s          
    65     2.129238  -1.389687  2 I  s                 66    -1.436834   0.937776  2 I  s          
    58    -1.343261   0.876704  2 I  s                 62    -1.154159   0.753283  2 I  s          
    59     0.797142  -0.520270  2 I  s                 67     0.741964  -0.484257  2 I  s          
    60    -0.502670   0.328077  2 I  s                 68    -0.423921   0.276680  2 I  s          

 Vector  450  Occ=0.000000D+00  E= 9.279885D+04
              MO Center= -1.9D-19, -4.8D-29, -1.0D-25, r^2= 2.4D-19
  Bfn.         Coefficient        Function           Bfn.         Coefficient        Function  
  ----     -------------------  ------------         ----     -------------------  ------------
   290    -3.111928   0.000000  2 I  s                289     2.913379  -0.000000  2 I  s          
   291     2.542614  -0.000000  2 I  s                292    -1.715785   0.000000  2 I  s          
   284    -1.604045   0.000000  2 I  s                288    -1.378230   0.000000  2 I  s          
   285     0.951901  -0.000000  2 I  s                293     0.886011  -0.000000  2 I  s          
   286    -0.600260   0.000000  2 I  s                294    -0.506222   0.000000  2 I  s          

 Vector  451  Occ=0.000000D+00  E= 1.227364D+06
              MO Center=  1.1D+00, -1.4D-15, -1.8D-16, r^2= 7.0D-01
  Bfn.         Coefficient        Function           Bfn.         Coefficient        Function  
  ----     -------------------  ------------         ----     -------------------  ------------
    64     1.033172  -0.786649  2 I  s                 63    -0.966430   0.735833  2 I  s          
    57    -0.956877   0.728559  2 I  s                 65    -0.844717   0.643161  2 I  s          
    66     0.570236  -0.434174  2 I  s                 58     0.466865  -0.355467  2 I  s          
    62     0.456616  -0.347664  2 I  s                 67    -0.294553   0.224270  2 I  s          
    59    -0.292687   0.222850  2 I  s                 60     0.193334  -0.147203  2 I  s          

 Vector  452  Occ=0.000000D+00  E= 1.227364D+06
              MO Center= -1.8D-22, -4.5D-32, -9.7D-29, r^2= 2.4D-22
  Bfn.         Coefficient        Function           Bfn.         Coefficient        Function  
  ----     -------------------  ------------         ----     -------------------  ------------
   290    -1.298561   0.000000  2 I  s                289     1.214676  -0.000000  2 I  s          
   283     1.202669  -0.000000  2 I  s                291     1.061699  -0.000000  2 I  s          
   292    -0.716712   0.000000  2 I  s                284    -0.586788   0.000000  2 I  s          
   288    -0.573906   0.000000  2 I  s                293     0.370214  -0.000000  2 I  s          
   285     0.367869  -0.000000  2 I  s                286    -0.242995   0.000000  2 I  s          


   alpha - beta orbital overlaps 
   ----------------------------- 


   alpha      1      2      3      4      5      6      7      8      9     10
    beta      4      4      5      5      5      5      7      7     15     16
 overlap   0.001  0.181  0.838  1.583  1.714  0.657  0.885  0.394  0.094  0.103


   alpha     11     12     13     14     15     16     17     18     19     20
    beta     17     15     16     17     15     16     17     15     16     17
 overlap   0.103  0.263  0.290  0.290  0.449  0.515  0.515  0.362  0.388  0.388


   alpha     21     22     23     24     25     26     27     28     29     30
    beta     21     22     23     21     22     23     42     43     44     45
 overlap   0.176  0.379  0.379  0.093  0.305  0.305  0.001  0.001  0.001  0.001


   alpha     31     32     33     34     35     36     37     38     39     40
    beta     46     42     43     44     45     46     42     43     44     45
 overlap   0.001  0.036  0.036  0.036  0.036  0.036  0.155  0.155  0.155  0.155


   alpha     41     42     43     44     45     46     47     48     49     50
    beta     46     42     43     44     45     46     42     43     44     45
 overlap   0.155  0.270  0.269  0.270  0.270  0.271  0.151  0.151  0.151  0.151


   alpha     51     52     53     54     55     56     57     58     59     60
    beta     46     42     43     44     45     46     65     65     65     65
 overlap   0.151  0.029  0.029  0.030  0.029  0.030  0.000  0.000  0.000  0.000


   alpha     61     62     63     64     65     66     67     68     69     70
    beta     65     65     65     65     65     65     65     65     65     70
 overlap   0.003  0.034  0.146  0.166  1.698  0.894  0.936  0.916  0.089  0.375


   alpha     71     72     73     74     75     76     77     78     79     80
    beta     70     70     91     92     93     91     92     93     91     92
 overlap   0.297  0.061  0.000  0.000  0.000  0.000  0.000  0.000  0.006  0.006


   alpha     81     82     83     84     85     86     87     88     89     90
    beta     93     91     92     93     91     92     93     91     92     93
 overlap   0.006  0.016  0.017  0.017  0.044  0.048  0.048  0.124  0.131  0.131


   alpha     91     92     93     94     95     96     97     98     99    100
    beta     91     92     93     91     92     93     91     92     93     21
 overlap   0.249  0.269  0.269  0.246  0.265  0.265  0.156  0.169  0.169  0.058


   alpha    101    102    103    104    105    106    107    108    109    110
    beta    104    105     21    104    105     21    104    105     21    104
 overlap   0.112  0.112  0.141  0.215  0.215  0.120  0.182  0.182  0.012  0.052


   alpha    111    112    113    114    115    116    117    118    119    120
    beta    105    152    153    154    155    156    152    153    154    155
 overlap   0.052  0.000  0.000  0.000  0.000  0.000  0.000  0.000  0.000  0.000


   alpha    121    122    123    124    125    126    127    128    129    130
    beta    156    152    153    154    155    156    152    153    154    155
 overlap   0.000  0.000  0.000  0.000  0.000  0.000  0.001  0.001  0.001  0.001


   alpha    131    132    133    134    135    136    137    138    139    140
    beta    156    152    153    154    155    156     22    153     21     23
 overlap   0.001  0.003  0.003  0.003  0.003  0.003  0.000  0.000  0.000  0.000


   alpha    141    142    143    144    145    146    147    148    149    150
    beta     21    152    153    154    155    156    152    153    154    155
 overlap   0.001  0.061  0.061  0.061  0.061  0.061  0.107  0.107  0.107  0.107


   alpha    151    152    153    154    155    156    157    158    159    160
    beta    156    152    153    154    155    156    152    153    154    155
 overlap   0.107  0.108  0.108  0.108  0.108  0.109  0.073  0.073  0.073  0.073


   alpha    161    162    163    164    165    166    167    168    169    170
    beta    156    152    153    154    155    156     22    153     21     23
 overlap   0.072  0.027  0.027  0.027  0.027  0.028  0.013  0.005  0.012  0.013


   alpha    171    172    173    174    175    176    177    178    179    180
    beta     21    104    153     21    105     21    104    153    104    105
 overlap   0.020  0.012  0.000  0.008  0.012  0.015  0.003  0.001  0.001  0.002


   alpha    181    182    183    184    185    186    187    188    189    190
    beta     21    105     21    104    153    104    105      7    105      7
 overlap   0.002  0.002  0.002  0.002  0.000  0.001  0.001  0.003  0.002  0.004


   alpha    191    192    193    194    195    196    197    198    199    200
    beta    104     43    104    105     21    105     21    104    153    104
 overlap   0.012  0.000  0.003  0.007  0.008  0.009  0.011  0.001  0.000  0.000


   alpha    201    202    203    204    205    206    207    208    209    210
    beta    153      5    105      5    105      5     22    153     22    153
 overlap   0.000  0.000  0.001  0.001  0.001  0.001  0.004  0.000  0.002  0.000


   alpha    211    212    213    214    215    216    217    218    219    220
    beta     21     23     21     23     21     22     43     22     43     22
 overlap   0.002  0.003  0.003  0.003  0.004  0.001  0.000  0.000  0.000  0.000


   alpha    221    222    223    224    225    226
    beta     23     21     23     21     23     21
 overlap   0.000  0.000  0.001  0.000  0.000  0.001

     --------------------------
     Expectation value of S2:  
     --------------------------
      <S2> =      0.2195 (Exact =     0.0000)


     Multipole analysis of the density
     ---------------------------------

     L   x y z        total         alpha         beta         nuclear
     -   - - -        -----         -----         ----         -------
     0   0 0 0      0.000000    -25.000000    -25.000000     50.000000

     1   1 0 0     -0.703818    -15.797020    -15.797020     30.890221
     1   0 1 0     -0.000001     -0.000001     -0.000001      0.000000
     1   0 0 1     -0.000000     -0.000000     -0.000000      0.000000

     2   2 0 0    -38.927795   -206.465861   -206.465861    374.003926
     2   1 1 0     -0.000003     -0.000002     -0.000002      0.000000
     2   1 0 1     -0.000001     -0.000001     -0.000001      0.000000
     2   0 2 0    -43.902568    -21.951284    -21.951284      0.000000
     2   0 1 1      0.000000      0.000000      0.000000      0.000000
     2   0 0 2    -43.902568    -21.951284    -21.951284      0.000000


 Parallel integral file used     923 records with       0 large values


 Task  times  cpu:       83.0s     wall:       84.6s
 Summary of allocated global arrays
-----------------------------------
  No active global arrays



                         GA Statistics for process    0
                         ------------------------------

       create   destroy   get      put      acc     scatter   gather  read&inc
calls: 1599     1599     6.09e+04 4.72e+04 1.32e+05    0        0     4232     
number of processes/call 1.00e+00 1.00e+00 1.00e+00 0.00e+00 0.00e+00
bytes total:             1.56e+09 1.07e+09 8.42e+08 0.00e+00 0.00e+00 3.39e+04
bytes remote:            0.00e+00 0.00e+00 0.00e+00 0.00e+00 0.00e+00 0.00e+00
Max memory consumed for GA by this process: 125442656 bytes
MA_summarize_allocated_blocks: starting scan ...
MA_summarize_allocated_blocks: scan completed: 0 heap blocks, 0 stack blocks
MA usage statistics:

	allocation statistics:
					      heap	     stack
					      ----	     -----
	current number of blocks	         0	         0
	maximum number of blocks	        45	        57
	current total bytes		         0	         0
	maximum total bytes		5332719152	  68528568
	maximum total K-bytes		   5332720	     68529
	maximum total M-bytes		      5333	        69


                                NWChem Input Module
                                -------------------





                                     CITATION
                                     --------
                Please cite the following reference when publishing
                           results obtained with NWChem:

                 M. Valiev, E.J. Bylaska, N. Govind, K. Kowalski,
              T.P. Straatsma, H.J.J. van Dam, D. Wang, J. Nieplocha,
                        E. Apra, T.L. Windus, W.A. de Jong
                 "NWChem: a comprehensive and scalable open-source
                  solution for large scale molecular simulations"
                      Comput. Phys. Commun. 181, 1477 (2010)
                           doi:10.1016/j.cpc.2010.04.018

                                      AUTHORS
                                      -------
          E. Apra, E. J. Bylaska, W. A. de Jong, N. Govind, K. Kowalski,
       T. P. Straatsma, M. Valiev, H. J. J. van Dam, D. Wang, T. L. Windus,
        J. Hammond, J. Autschbach, K. Bhaskaran-Nair, J. Brabec, K. Lopata,
    S. A. Fischer, S. Krishnamoorthy, M. Jacquelin, W. Ma, M. Klemm, O. Villa,
      Y. Chen, V. Anisimov, F. Aquino, S. Hirata, M. T. Hackler, V. Konjkov,
            D. Mejia-Rodriguez, T. Risthaus, M. Malagoli, A. Marenich,
   A. Otero-de-la-Roza, J. Mullin, P. Nichols, R. Peverati, J. Pittner, Y. Zhao,
        P.-D. Fan, A. Fonari, M. J. Williamson, R. J. Harrison, J. R. Rehr,
      M. Dupuis, D. Silverstein, D. M. A. Smith, J. Nieplocha, V. Tipparaju,
    M. Krishnan, B. E. Van Kuiken, A. Vazquez-Mayagoitia, L. Jensen, M. Swart,
      Q. Wu, T. Van Voorhis, A. A. Auer, M. Nooijen, L. D. Crosby, E. Brown,
      G. Cisneros, G. I. Fann, H. Fruchtl, J. Garza, K. Hirao, R. A. Kendall,
      J. A. Nichols, K. Tsemekhman, K. Wolinski, J. Anchell, D. E. Bernholdt,
      P. Borowski, T. Clark, D. Clerc, H. Dachsel, M. J. O. Deegan, K. Dyall,
    D. Elwood, E. Glendening, M. Gutowski, A. C. Hess, J. Jaffe, B. G. Johnson,
     J. Ju, R. Kobayashi, R. Kutteh, Z. Lin, R. Littlefield, X. Long, B. Meng,
      T. Nakajima, S. Niu, L. Pollack, M. Rosing, K. Glaesemann, G. Sandrone,
      M. Stave, H. Taylor, G. Thomas, J. H. van Lenthe, A. T. Wong, Z. Zhang.

 Total times  cpu:       83.1s     wall:       85.6s
