 argument  1 = nwcd.nw
                                         
                                         


              Northwest Computational Chemistry Package (NWChem) 6.8
              ------------------------------------------------------


                    Environmental Molecular Sciences Laboratory
                       Pacific Northwest National Laboratory
                                Richland, WA 99352

                              Copyright (c) 1994-2018
                       Pacific Northwest National Laboratory
                            Battelle Memorial Institute

             NWChem is an open-source computational chemistry package
                        distributed under the terms of the
                      Educational Community License (ECL) 2.0
             A copy of the license is included with this distribution
                              in the LICENSE.TXT file

                                  ACKNOWLEDGMENT
                                  --------------

            This software and its documentation were developed at the
            EMSL at Pacific Northwest National Laboratory, a multiprogram
            national laboratory, operated for the U.S. Department of Energy
            by Battelle under Contract Number DE-AC05-76RL01830. Support
            for this work was provided by the Department of Energy Office
            of Biological and Environmental Research, Office of Basic
            Energy Sciences, and the Office of Advanced Scientific Computing.


           Job information
           ---------------

    hostname        = r03n41.localdomain.hpc.udel.edu
    program         = nwchem
    date            = Mon Jul 20 20:40:50 2020

    compiled        = Mon_Jun_22_16:48:09_2020
    source          = /opt/shared/nwchem/6.8.1/src
    nwchem branch   = Development
    nwchem revision = N/A
    ga revision     = 5.6.5
    use scalapack   = F
    input           = nwcd.nw
    prefix          = nwcd.
    data base       = /work/akanane/users/akanane/Relativistic/GA/parallel/test/nwcd.db
    status          = startup
    nproc           =        1
    time left       =     -1s



           Memory information
           ------------------

    heap     = 1048575998 doubles =   8000.0 Mbytes
    stack    = 1048575995 doubles =   8000.0 Mbytes
    global   = 2097152000 doubles =  16000.0 Mbytes (distinct from heap & stack)
    total    = 4194303993 doubles =  32000.0 Mbytes
    verify   = yes
    hardfail = no 


           Directory information
           ---------------------

  0 permanent = /work/akanane/users/akanane/Relativistic/GA/parallel/test
  0 scratch   = /lustre/scratch/akanane/nwchem/4




                                NWChem Input Module
                                -------------------


  library name resolved from: environment
  library file name is: </opt/shared/nwchem/6.8.1/data/libraries/>
  
                      Basis "ao basis" -> "" (spherical)
                      -----
  At (Astatine)
  -------------
            Exponent  Coefficients 
       -------------- ---------------------------------------------------------
  1 S  3.03080876E+02  1.000000

  2 S  2.24085000E+01  1.000000

  3 S  1.40490000E+01  1.000000

  4 S  7.63960250E+00  1.000000

  5 S  1.89494000E+00  1.000000

  6 S  9.60058800E-01  1.000000

  7 S  3.19654600E-01  1.000000

  8 S  1.22086100E-01  1.000000

  9 P  1.19852412E+01  1.000000

 10 P  8.22689180E+00  1.000000

 11 P  2.31140820E+00  1.000000

 12 P  1.02133000E+00  1.000000

 13 P  3.03830400E-01  1.000000

 14 P  1.00110500E-01  1.000000

 15 D  2.13084000E+01  1.000000

 16 D  7.07428630E+00  1.000000

 17 D  2.76898000E+00  1.000000

 18 D  1.37314000E+00  1.000000

 19 D  6.39439100E-01  1.000000

 20 D  2.59300000E-01  1.000000



 Summary of "ao basis" -> "" (spherical)
 ------------------------------------------------------------------------------
       Tag                 Description            Shells   Functions and Types
 ---------------- ------------------------------  ------  ---------------------
 At                      user specified             20       56   8s6p6d


  library name resolved from: environment
  library file name is: </opt/shared/nwchem/6.8.1/data/libraries/>
  
                 ECP       "ecp basis" -> "" (cartesian)
                -----
  At (Astatine) Replaces    60 electrons
  --------------------------------------
             Channel    R-exponent     Exponent     Coefficients
         ------------ ---------------------------------------------------------
  1 U L       Both         0.00      525.754846      -0.173059
  1 U L       Both         1.00     2395.715850      -2.276906
  1 U L       Both         1.00      278.392187      -3.857969
  1 U L       Both         1.00       61.458962     -36.770662
  1 U L       Both         1.00       44.129376      37.601009
  1 U L       Both         1.00       31.359815     -23.238699
  1 U L       Both         1.00       11.620573     -16.176532
  1 U L       Both         1.00        4.446625      -3.261971
  1 U L       Both         1.00        2.935632       0.180132
  1 U L       Both         1.00        1.910251      -0.146253
  1 U L       Both         1.00        0.178868      -0.000306
  1 U L       Both         1.00        0.018768      -0.000022
  1 U L       Both         1.00        0.009761      -0.000001

  2 U-s       Both         0.00       78.594234      10.173059
  2 U-s       Both         1.00       20.707609      53.132769
  2 U-s       Both         2.00       45.167107     915.704248
  2 U-s       Both         2.00       30.243749   -1411.543382
  2 U-s       Both         2.00       20.306371    1849.067583
  2 U-s       Both         2.00       13.560689   -1518.357864
  2 U-s       Both         2.00        8.557058    1106.328043
  2 U-s       Both         2.00        5.419636    -461.892244
  2 U-s       Both         2.00        3.516909     198.105995
  2 U-s       Both         2.00        2.287714     -81.896353
  2 U-s       Both         2.00        1.492833      32.227905
  2 U-s       Both         2.00        0.974359     -11.458592
  2 U-s       Both         2.00        0.633560       3.370887
  2 U-s       Both         2.00        0.410317      -0.726005
  2 U-s       Both         2.00        0.263860       0.084087

  3 U-p       Both         0.00       77.044856       9.173059
  3 U-p       Both         1.00      208.029432     -11.921411
  3 U-p       Both         1.00       28.036479      67.690912
  3 U-p       Both         2.00       39.868030     362.644345
  3 U-p       Both         2.00       26.002305    -582.208229
  3 U-p       Both         2.00       15.965542    1135.430155
  3 U-p       Both         2.00       11.089072   -1255.187511
  3 U-p       Both         2.00        8.084023     873.528658
  3 U-p       Both         2.00        5.150690    -147.543640
  3 U-p       Both         2.00        2.818771      20.737280
  3 U-p       Both         2.00        1.590819      -4.949674
  3 U-p       Both         2.00        0.878982       1.224799
  3 U-p       Both         2.00        0.479414      -0.318322
  3 U-p       Both         2.00        0.264399       0.075196
  3 U-p       Both         2.00        0.157424      -0.011770

  4 U-d       Both         0.00       30.117728       7.173059
  4 U-d       Both         1.00        9.540744     223.203571
  4 U-d       Both         1.00        5.932081    -532.676982
  4 U-d       Both         1.00        3.279986     364.117347
  4 U-d       Both         2.00        6.384402     470.098427
  4 U-d       Both         2.00        3.591978    -476.290215
  4 U-d       Both         2.00        1.790367       1.447964
  4 U-d       Both         2.00        0.921766      -0.463077
  4 U-d       Both         2.00        0.485962       0.163733
  4 U-d       Both         2.00        0.266420      -0.069600
  4 U-d       Both         2.00        0.150370       0.031881
  4 U-d       Both         2.00        0.090090      -0.013071
  4 U-d       Both         2.00        0.051240       0.003831
  4 U-d       Both         2.00        0.029281      -0.000895
  4 U-d       Both         2.00        0.016722       0.000119

  5 U-f       Both         0.00        0.891112       4.173059
  5 U-f       Both         1.00       18.356496      62.551914
  5 U-f       Both         2.00    32873.554569    1035.415119
  5 U-f       Both         2.00     3063.446789     192.725071
  5 U-f       Both         2.00       31.894642    -183.984679
  5 U-f       Both         2.00        4.214026      69.570454
  5 U-f       Both         2.00        1.887936    -131.986631
  5 U-f       Both         2.00        1.332761     223.444177
  5 U-f       Both         2.00        0.873304    -167.865396
  5 U-f       Both         2.00        0.632167      71.630825
  5 U-f       Both         2.00        0.438045     -11.215886
  5 U-f       Both         2.00        0.261926       0.470906
  5 U-f       Both         2.00        0.174510       0.000847

  library name resolved from: environment
  library file name is: </opt/shared/nwchem/6.8.1/data/libraries/>
  

 **** WARNING Zero Coefficient **** on atom "              At"
 angular momentum value: 1  standard basis set name: "user specified"
 input line that generated warning:
   130: 0	7.704485637704510E+01		0.000000000000000E+00
  

 **** WARNING Zero Coefficient **** on atom "              At"
 angular momentum value: 2  standard basis set name: "user specified"
 input line that generated warning:
   146: 0	3.011772828438610E+01		0.000000000000000E+00
  

 **** WARNING Zero Coefficient **** on atom "              At"
 angular momentum value: 3  standard basis set name: "user specified"
 input line that generated warning:
   162: 0	8.911119625038520E-01		0.000000000000000E+00
  

 **** WARNING Zero Coefficient **** on atom "              At"
 angular momentum value: 4  standard basis set name: "user specified"
 input line that generated warning:
   176: 0	5.257548462769590E+02		0.000000000000000E+00
  
             SO Potential "so potential" -> ""
                      -----
  At (Astatine)
  -------------
          R-exponent    Exponent     Coefficients 
         ------------ ------------------------------------------------------------
  1 U-p      1.00      208.029432       2.561177
  1 U-p      1.00       28.036479      -1.650544
  1 U-p      2.00       39.868030      77.307362
  1 U-p      2.00       26.002305    -118.585980
  1 U-p      2.00       15.965542     138.579485
  1 U-p      2.00       11.089072     -52.715330
  1 U-p      2.00        8.084023     -58.916702
  1 U-p      2.00        5.150690      62.873440
  1 U-p      2.00        2.818771     -15.889430
  1 U-p      2.00        1.590819       4.843922
  1 U-p      2.00        0.878982      -1.405982
  1 U-p      2.00        0.479414       0.390801
  1 U-p      2.00        0.264399      -0.095951
  1 U-p      2.00        0.157424       0.015456

  2 U-d      1.00        9.540744       1.612834
  2 U-d      1.00        5.932081      -1.350383
  2 U-d      1.00        3.279986      -0.287663
  2 U-d      2.00        6.384402      -1.664264
  2 U-d      2.00        3.591978       4.036069
  2 U-d      2.00        1.790367      -0.890782
  2 U-d      2.00        0.921766       0.301059
  2 U-d      2.00        0.485962      -0.123316
  2 U-d      2.00        0.266420       0.057045
  2 U-d      2.00        0.150370      -0.027051
  2 U-d      2.00        0.090090       0.011366
  2 U-d      2.00        0.051240      -0.003367
  2 U-d      2.00        0.029281       0.000795
  2 U-d      2.00        0.016722      -0.000104

  3 U-f      1.00       18.356496      -0.000643
  3 U-f      2.00    32873.554569       0.834481
  3 U-f      2.00     3063.446789       0.273486
  3 U-f      2.00       31.894642       0.160633
  3 U-f      2.00        4.214026      -0.068824
  3 U-f      2.00        1.887936       0.022494
  3 U-f      2.00        1.332761      -0.174753
  3 U-f      2.00        0.873304       0.160803
  3 U-f      2.00        0.632167       0.036072
  3 U-f      2.00        0.438045      -0.065269
  3 U-f      2.00        0.261926       0.016437
  3 U-f      2.00        0.174510      -0.002626

  4 U-g      1.00     2395.715850      -1.527919
  4 U-g      1.00      278.392187      -3.033005
  4 U-g      1.00       61.458962       2.574144
  4 U-g      1.00       44.129376      -2.630667
  4 U-g      1.00       31.359815       1.110494
  4 U-g      1.00       11.620573      -0.051219
  4 U-g      1.00        4.446625       0.042132
  4 U-g      1.00        2.935632      -0.036158
  4 U-g      1.00        1.910251       0.008870
  4 U-g      1.00        0.178868       0.000099
  4 U-g      1.00        0.018768       0.000004
  4 U-g      1.00        0.009761      -0.000000

                                        At2
                                        ---

 Scaling coordinates for geometry "geometry" by  1.889725989
 (inverse scale =  0.529177249)

 Turning off AUTOSYM since
 SYMMETRY directive was detected!


          ------
          auto-z
          ------
  no constraints, skipping    0.0000000000000000     
  no constraints, skipping    0.0000000000000000     


                             Geometry "geometry" -> ""
                             -------------------------

 Output coordinates in angstroms (scale by  1.889725989 to convert to a.u.)

  No.       Tag          Charge          X              Y              Z
 ---- ---------------- ---------- -------------- -------------- --------------
    1 At                  85.0000    -1.48753783     0.00000000     0.00000000
    2 At                  85.0000     1.48753783     0.00000000     0.00000000

      Atomic Mass 
      ----------- 

      At               210.987500


 Effective nuclear repulsion energy (a.u.)    1285.1120646871

            Nuclear Dipole moment (a.u.) 
            ----------------------------
        X                 Y               Z
 ---------------- ---------------- ----------------
     0.0000000000     0.0000000000     0.0000000000



                                Z-matrix (autoz)
                                -------- 

 Units are Angstrom for bonds and degrees for angles

      Type          Name      I     J     K     L     M      Value
      ----------- --------  ----- ----- ----- ----- ----- ----------
    1 Stretch                  1     2                       2.97508


            XYZ format geometry
            -------------------
     2
 geometry
 At                   -1.48753783     0.00000000     0.00000000
 At                    1.48753783     0.00000000     0.00000000

 ==============================================================================
                                internuclear distances
 ------------------------------------------------------------------------------
       center one      |      center two      | atomic units |  angstroms
 ------------------------------------------------------------------------------
    2 At               |   1 At               |     5.62208  |     2.97508
 ------------------------------------------------------------------------------
                         number of included internuclear distances:          1
 ==============================================================================




                                 NWChem DFT Module
                                 -----------------


                                        At2




 Summary of "ao basis" -> "ao basis" (spherical)
 ------------------------------------------------------------------------------
       Tag                 Description            Shells   Functions and Types
 ---------------- ------------------------------  ------  ---------------------
 At                      user specified             20       56   8s6p6d


  Caching 1-el integrals 

            General Information
            -------------------
          SCF calculation type: DFT
          Wavefunction type:  spin polarized.
          No. of atoms     :     2
          No. of electrons :    50
           Alpha electrons :    25
            Beta electrons :    25
          Charge           :     0
          Spin multiplicity:     1
          Use of symmetry is: off; symmetry adaption is: off
          Maximum number of iterations: 100
          AO basis - number of functions:   112
                     number of shells:    40
          Convergence on energy requested:  1.00D-06
          Convergence on density requested:  5.00D-06
          Convergence on gradient requested:  5.00D-06

              XC Information
              --------------
                         PBE0 Method XC Functional
                     Hartree-Fock (Exact) Exchange  0.250          
          PerdewBurkeErnzerhof Exchange Functional  0.750          
            Perdew 1991 LDA Correlation Functional  1.000 local    
           PerdewBurkeErnz. Correlation Functional  1.000 non-local

             Grid Information
             ----------------
          Grid used for XC integration:  xfine     
          Radial quadrature: Mura-Knowles        
          Angular quadrature: Lebedev. 
          Tag              B.-S. Rad. Rad. Pts. Rad. Cut. Ang. Pts.
          ---              ---------- --------- --------- ---------
          At                  1.90      205          11.0      1454
          Grid pruning is: on 
          Number of quadrature shells:   410
          Spatial weights used:  Erf1

          Convergence Information
          -----------------------
          Convergence aids based upon iterative change in 
          total energy or number of iterations. 
          Levelshifting, if invoked, occurs when the 
          HOMO/LUMO gap drops below (HL_TOL):  1.00D-02
          DIIS, if invoked, will attempt to extrapolate 
          using up to (NFOCK): 10 stored Fock matrices.

                    Damping( 0%)  Levelshifting(0.5)       DIIS
                  --------------- ------------------- ---------------
          dE  on:    start            ASAP                start   
          dE off:    2 iters        100 iters           100 iters 


      Screening Tolerance Information
      -------------------------------
          Density screening/tol_rho:  1.00D-10
          AO Gaussian exp screening on grid/accAOfunc:  14
          CD Gaussian exp screening on grid/accCDfunc:  20
          XC Gaussian exp screening on grid/accXCfunc:  20
          Schwarz screening/accCoul:  1.00D-10

 Performing spin-orbit DFT (SO-DFT) calculations
 -----------------------------------------------


      Superposition of Atomic Density Guess
      -------------------------------------

 Sum of atomic energies:        -606.04411390

      Non-variational initial energy
      ------------------------------

 Total energy =    -523.008422
 1-e energy   =   -1130.951398
 2-e energy   =     496.774112
 HOMO         =      -0.284244
 LUMO         =      -0.159944

   Time prior to 1st pass:      1.2

 Integral file          = /lustre/scratch/akanane/nwchem/4/nwcd.aoints.0
 Record size in doubles =    65536    No. of integs per rec  =    43688
 Max. records in memory =      623    Max. records in file   = 13767800
 No. of bits per label  =        8    No. of bits per value  =       64


 #quartets = 2.072D+05 #integrals = 2.741D+06 #direct =  0.0% #cached =100.0%


 Grid_pts file          = /lustre/scratch/akanane/nwchem/4/nwcd.gridpts.0
 Record size in doubles =  12289        No. of grid_pts per rec  =   3070
 Max. records in memory =    215        Max. recs in file   = 807643578


           Memory utilization after 1st SCF pass: 
           Heap Space remaining (MW):     1005.09          1005089462
          Stack Space remaining (MW):     1048.47          1048472524

   convergence    iter        energy       DeltaE   RMS-Dens  Diis-err    time
 ---------------- ----- ----------------- --------- --------- ---------  ------
 d= 0,ls=0.0,diis     1   -525.3396796426 -6.37D+02  5.55D-03  1.24D+01     3.9
                                                     5.55D-03  1.24D+01
 d= 0,ls=0.0,diis     2   -525.9772563260 -6.38D-01  1.97D-03  3.21D-02     5.7
                                                     1.97D-03  3.21D-02
 d= 0,ls=0.0,diis     3   -525.9820844229 -4.83D-03  9.03D-04  1.99D-02     7.6
                                                     9.03D-04  1.99D-02
 d= 0,ls=0.0,diis     4   -525.9861245947 -4.04D-03  8.80D-05  4.54D-05     9.4
                                                     8.80D-05  4.54D-05
 d= 0,ls=0.0,diis     5   -525.9861848353 -6.02D-05  2.78D-05  7.22D-06    11.1
                                                     2.78D-05  7.22D-06
 d= 0,ls=0.0,diis     6   -525.9861875420 -2.71D-06  7.38D-06  1.19D-06    12.8
                                                     7.38D-06  1.19D-06
 d= 0,ls=0.0,diis     7   -525.9861880000 -4.58D-07  1.15D-06  8.80D-09    14.4
                                                     1.15D-06  8.80D-09


      Total SO-DFT energy =     -525.986188005952
      One electron energy =    -1132.356295408147
           Coulomb energy =      534.005622418803
    Exchange-Corr. energy =      -38.804378743863
 Nuclear repulsion energy =      111.168863727254

 Numeric. integr. density =       50.000000047530

     Total iterative time =     14.9s



                       DFT Final Molecular Orbital Analysis
                       ------------------------------------

 Vector    1  Occ=1.000000D+00  E=-7.180139D+00
              MO Center=  2.5D-03, -4.8D-08, -4.9D-09, r^2= 2.4D+00
  Bfn.         Coefficient        Function           Bfn.         Coefficient        Function  
  ----     -------------------  ------------         ----     -------------------  ------------
    60    -0.776989  -0.115647  2 At s                  4     0.775634   0.115446  1 At s          
    61     0.700568   0.104273  2 At s                  5    -0.699345  -0.104091  1 At s          
    59     0.429432   0.063917  2 At s                  3    -0.428683  -0.063805  1 At s          
    62     0.290697   0.043267  2 At s                  6    -0.290193  -0.043192  1 At s          
    58    -0.095855  -0.014267  2 At s                  2     0.095688   0.014242  1 At s          

 Vector    2  Occ=1.000000D+00  E=-7.180139D+00
              MO Center=  1.4D-09, -1.8D-14,  2.1D-10, r^2= 1.3D-06
  Bfn.         Coefficient        Function           Bfn.         Coefficient        Function  
  ----     -------------------  ------------         ----     -------------------  ------------
   172     0.785548   0.000000  2 At s                116    -0.784179   0.000000  1 At s          
   173    -0.708286  -0.000000  2 At s                117     0.707049  -0.000000  1 At s          
   171    -0.434162  -0.000000  2 At s                115     0.433405  -0.000000  1 At s          
   174    -0.293899  -0.000000  2 At s                118     0.293389  -0.000000  1 At s          
   170     0.096911   0.000000  2 At s                114    -0.096742   0.000000  1 At s          

 Vector    3  Occ=1.000000D+00  E=-7.180131D+00
              MO Center= -3.5D-04, -1.2D-07, -4.7D-10, r^2= 3.2D-01
  Bfn.         Coefficient        Function           Bfn.         Coefficient        Function  
  ----     -------------------  ------------         ----     -------------------  ------------
     4    -0.287898   0.731180  1 At s                 60    -0.287396   0.729906  2 At s          
     5     0.259787  -0.659788  1 At s                 61     0.259335  -0.658639  2 At s          
     3     0.159138  -0.404166  1 At s                 59     0.158861  -0.403462  2 At s          
     6     0.107119  -0.272051  1 At s                 62     0.106931  -0.271575  2 At s          
     2    -0.035529   0.090234  1 At s                 58    -0.035467   0.090077  2 At s          

 Vector    4  Occ=1.000000D+00  E=-7.180131D+00
              MO Center= -1.1D-09, -2.2D-13, -1.7D-10, r^2= 9.9D-07
  Bfn.         Coefficient        Function           Bfn.         Coefficient        Function  
  ----     -------------------  ------------         ----     -------------------  ------------
   116    -0.785818  -0.000000  1 At s                172    -0.784448  -0.000000  2 At s          
   117     0.709091   0.000000  1 At s                173     0.707856   0.000000  2 At s          
   115     0.434367   0.000000  1 At s                171     0.433611   0.000000  2 At s          
   118     0.292380   0.000000  1 At s                174     0.291868   0.000000  2 At s          
   114    -0.096976  -0.000000  1 At s                170    -0.096808  -0.000000  2 At s          

 Vector    5  Occ=1.000000D+00  E=-5.353783D+00
              MO Center= -3.3D-03, -1.2D-06, -3.1D-07, r^2= 8.1D-01
  Bfn.         Coefficient        Function           Bfn.         Coefficient        Function  
  ----     -------------------  ------------         ----     -------------------  ------------
    15    -0.172158  -0.283197  1 At px                71     0.171025   0.281343  2 At px         
   129     0.170715   0.280825  1 At pz                16    -0.280825   0.170715  1 At py         
    72     0.278986  -0.169592  2 At py               185    -0.169592  -0.278986  2 At pz         
    12     0.076591   0.125991  1 At px                68    -0.076087  -0.125166  2 At px         
   126    -0.075425  -0.124073  1 At pz                13     0.124073  -0.075425  1 At py         

 Vector    6  Occ=1.000000D+00  E=-5.353783D+00
              MO Center= -3.2D-03, -5.8D-08,  3.1D-07, r^2= 8.0D-01
  Bfn.         Coefficient        Function           Bfn.         Coefficient        Function  
  ----     -------------------  ------------         ----     -------------------  ------------
   127    -0.331419  -0.000023  1 At px               183     0.329246   0.000018  2 At px         
    17    -0.328643  -0.000023  1 At pz               128     0.000023  -0.328643  1 At py         
   184    -0.000018   0.326489  2 At py                73     0.326489   0.000018  2 At pz         
   124     0.147444   0.000010  1 At px               180    -0.146477  -0.000008  2 At px         
    14     0.145200   0.000010  1 At pz               125    -0.000010   0.145200  1 At py         

 Vector    7  Occ=1.000000D+00  E=-5.353777D+00
              MO Center=  3.2D-03,  4.2D-10, -2.3D-08, r^2= 8.0D-01
  Bfn.         Coefficient        Function           Bfn.         Coefficient        Function  
  ----     -------------------  ------------         ----     -------------------  ------------
   183    -0.339501   0.000002  2 At px               127    -0.337275  -0.000003  1 At px         
   184    -0.000002  -0.336598  2 At py                73    -0.336598   0.000002  2 At pz         
    17    -0.334391  -0.000003  1 At pz               128     0.000003  -0.334391  1 At py         
   180     0.151036  -0.000001  2 At px               124     0.150046   0.000001  1 At px         
   181     0.000001   0.148716  2 At py                70     0.148716  -0.000001  2 At pz         

 Vector    8  Occ=1.000000D+00  E=-5.353777D+00
              MO Center=  3.3D-03, -8.5D-07,  2.4D-08, r^2= 8.3D-01
  Bfn.         Coefficient        Function           Bfn.         Coefficient        Function  
  ----     -------------------  ------------         ----     -------------------  ------------
    71    -0.321234   0.109860  2 At px                15    -0.319127   0.109145  1 At px         
    72     0.108921   0.318488  2 At py               185     0.318488  -0.108921  2 At pz         
   129     0.316398  -0.108211  1 At pz                16     0.108211   0.316398  1 At py         
    68     0.142910  -0.048874  2 At px                12     0.141972  -0.048556  1 At px         
    69    -0.048124  -0.140715  2 At py               182    -0.140715   0.048124  2 At pz         

 Vector    9  Occ=1.000000D+00  E=-4.235982D+00
              MO Center= -5.2D-04,  4.1D-08,  3.7D-10, r^2= 1.4D+00
  Bfn.         Coefficient        Function           Bfn.         Coefficient        Function  
  ----     -------------------  ------------         ----     -------------------  ------------
    18     0.317301   0.162502  1 At px                74    -0.317100  -0.162399  2 At px         
    15     0.278323   0.142540  1 At px                71    -0.278147  -0.142449  2 At px         
    12    -0.202677  -0.103799  1 At px                68     0.202549   0.103733  2 At px         
   132     0.159016   0.081439  1 At pz                19    -0.081439   0.159016  1 At py         
    75     0.081388  -0.158916  2 At py               188    -0.158916  -0.081386  2 At pz         

 Vector   10  Occ=1.000000D+00  E=-4.235982D+00
              MO Center= -1.6D-04,  5.5D-10, -2.1D-09, r^2= 4.2D-01
  Bfn.         Coefficient        Function           Bfn.         Coefficient        Function  
  ----     -------------------  ------------         ----     -------------------  ------------
   130     0.356492  -0.000001  1 At px               186    -0.356267   0.000000  2 At px         
   127     0.312700  -0.000001  1 At px               183    -0.312502   0.000000  2 At px         
   124    -0.227711   0.000001  1 At px               180     0.227567  -0.000000  2 At px         
    20    -0.178657   0.000000  1 At pz               131    -0.000000  -0.178657  1 At py         
   187     0.000001   0.178544  2 At py                76     0.178544   0.000001  2 At pz         

 Vector   11  Occ=1.000000D+00  E=-4.235869D+00
              MO Center=  6.2D-04,  4.8D-09, -1.7D-09, r^2= 1.6D+00
  Bfn.         Coefficient        Function           Bfn.         Coefficient        Function  
  ----     -------------------  ------------         ----     -------------------  ------------
    74    -0.355881   0.012669  2 At px                18    -0.355656   0.012661  1 At px         
    71    -0.312831   0.011137  2 At px                15    -0.312634   0.011129  1 At px         
    68     0.227715  -0.008107  2 At px                12     0.227571  -0.008101  1 At px         
    75    -0.006354  -0.178510  2 At py               188    -0.178509   0.006356  2 At pz         
   132    -0.178397   0.006351  1 At pz                19    -0.006351  -0.178397  1 At py         

 Vector   12  Occ=1.000000D+00  E=-4.235869D+00
              MO Center=  1.6D-04,  5.6D-10, -7.4D-10, r^2= 4.2D-01
  Bfn.         Coefficient        Function           Bfn.         Coefficient        Function  
  ----     -------------------  ------------         ----     -------------------  ------------
   186    -0.356107  -0.000000  2 At px               130    -0.355881   0.000001  1 At px         
   183    -0.313029  -0.000000  2 At px               127    -0.312832   0.000001  1 At px         
   180     0.227859   0.000000  2 At px               124     0.227715  -0.000000  1 At px         
   187     0.000001   0.178623  2 At py                76     0.178622   0.000001  2 At pz         
    20     0.178510  -0.000000  1 At pz               131     0.000000   0.178510  1 At py         

 Vector   13  Occ=1.000000D+00  E=-4.224640D+00
              MO Center= -1.1D-02, -9.2D-08,  4.7D-08, r^2= 9.8D-01
  Bfn.         Coefficient        Function           Bfn.         Coefficient        Function  
  ----     -------------------  ------------         ----     -------------------  ------------
    19    -0.245058   0.142435  1 At py               132    -0.142435  -0.245058  1 At pz         
   188    -0.139780  -0.240490  2 At pz                75    -0.240490   0.139780  2 At py         
    16    -0.218600   0.127056  1 At py               129    -0.127056  -0.218600  1 At pz         
   185    -0.124690  -0.214528  2 At pz                72    -0.214527   0.124689  2 At py         
    13     0.158083  -0.091883  1 At py               126     0.091883   0.158083  1 At pz         

 Vector   14  Occ=1.000000D+00  E=-4.224640D+00
              MO Center= -1.3D-02, -1.7D-08, -4.9D-08, r^2= 1.2D+00
  Bfn.         Coefficient        Function           Bfn.         Coefficient        Function  
  ----     -------------------  ------------         ----     -------------------  ------------
   131    -0.000014  -0.283446  1 At py                20     0.283446  -0.000013  1 At pz         
    76     0.278162  -0.000013  2 At pz               187    -0.000013  -0.278161  2 At py         
   128    -0.000012  -0.252842  1 At py                17     0.252842  -0.000012  1 At pz         
    73     0.248132  -0.000012  2 At pz               184    -0.000012  -0.248132  2 At py         
   125     0.000009   0.182846  1 At py                14    -0.182846   0.000009  1 At pz         

 Vector   15  Occ=1.000000D+00  E=-4.224636D+00
              MO Center=  1.4D-02,  1.4D-08, -3.1D-08, r^2= 1.2D+00
  Bfn.         Coefficient        Function           Bfn.         Coefficient        Function  
  ----     -------------------  ------------         ----     -------------------  ------------
    76    -0.284599   0.000110  2 At pz               187     0.000112   0.284599  2 At py         
    20     0.279299  -0.000109  1 At pz               131    -0.000109  -0.279299  1 At py         
    73    -0.253692   0.000098  2 At pz               184     0.000099   0.253692  2 At py         
    17     0.248964  -0.000097  1 At pz               128    -0.000097  -0.248964  1 At py         
    70     0.183483  -0.000071  2 At pz               181    -0.000072  -0.183483  2 At py         

 Vector   16  Occ=1.000000D+00  E=-4.224636D+00
              MO Center=  1.3D-02,  6.4D-08,  2.8D-08, r^2= 1.1D+00
  Bfn.         Coefficient        Function           Bfn.         Coefficient        Function  
  ----     -------------------  ------------         ----     -------------------  ------------
   188     0.090070   0.269971  2 At pz                75     0.269971  -0.090068  2 At py         
   132    -0.088391  -0.264943  1 At pz                19    -0.264943   0.088391  1 At py         
   185     0.080288   0.240652  2 At pz                72     0.240653  -0.080287  2 At py         
   129    -0.078791  -0.236167  1 At pz                16    -0.236167   0.078791  1 At py         
   182    -0.058069  -0.174052  2 At pz                69    -0.174052   0.058068  2 At py         

 Vector   17  Occ=1.000000D+00  E=-1.651741D+00
              MO Center=  7.2D-06, -8.0D-11,  1.2D-09, r^2= 7.4D-01
  Bfn.         Coefficient        Function           Bfn.         Coefficient        Function  
  ----     -------------------  ------------         ----     -------------------  ------------
   214    -0.203797  -0.000000  2 At d  2             158    -0.203794   0.000000  1 At d  2       
   210     0.000000  -0.191267  2 At d -2             101     0.191267  -0.000000  2 At d  1       
    45     0.191264  -0.000000  1 At d  1             154    -0.000000  -0.191264  1 At d -2       
   209    -0.131083  -0.000000  2 At d  2             153    -0.131081   0.000000  1 At d  2       
   205     0.000000  -0.124747  2 At d -2              96     0.124747  -0.000000  2 At d  1       

 Vector   18  Occ=1.000000D+00  E=-1.651741D+00
              MO Center=  8.1D-06, -3.5D-10,  3.7D-10, r^2= 8.5D-01
  Bfn.         Coefficient        Function           Bfn.         Coefficient        Function  
  ----     -------------------  ------------         ----     -------------------  ------------
   102    -0.106536   0.173734  2 At d  2              46    -0.106534   0.173731  1 At d  2       
    98     0.163052   0.099986  2 At d -2             213    -0.099986   0.163052  2 At d  1       
   157    -0.099984   0.163049  1 At d  1              42     0.163049   0.099984  1 At d -2       
    97    -0.068524   0.111746  2 At d  2              41    -0.068523   0.111744  1 At d  2       
    93     0.106345   0.065212  2 At d -2             208    -0.065212   0.106345  2 At d  1       

 Vector   19  Occ=1.000000D+00  E=-1.650581D+00
              MO Center= -7.3D-06, -1.2D-10,  1.5D-09, r^2= 7.7D-01
  Bfn.         Coefficient        Function           Bfn.         Coefficient        Function  
  ----     -------------------  ------------         ----     -------------------  ------------
   158     0.198544  -0.000000  1 At d  2             214    -0.198541   0.000000  2 At d  2       
    45    -0.194528   0.000000  1 At d  1             154     0.000000   0.194528  1 At d -2       
   210    -0.000000  -0.194525  2 At d -2             101     0.194525  -0.000000  2 At d  1       
   153     0.128371  -0.000000  1 At d  2             209    -0.128369   0.000000  2 At d  2       
    40    -0.126461   0.000000  1 At d  1             149     0.000000   0.126461  1 At d -2       

 Vector   20  Occ=1.000000D+00  E=-1.650581D+00
              MO Center= -8.6D-06, -1.3D-09,  3.7D-10, r^2= 9.0D-01
  Bfn.         Coefficient        Function           Bfn.         Coefficient        Function  
  ----     -------------------  ------------         ----     -------------------  ------------
    46     0.131469  -0.148780  1 At d  2             102    -0.131467   0.148778  2 At d  2       
   157     0.128810  -0.145771  1 At d  1              42    -0.145771  -0.128810  1 At d -2       
    98     0.145768   0.128808  2 At d -2             213    -0.128808   0.145768  2 At d  1       
    41     0.085003  -0.096196  1 At d  2              97    -0.085002   0.096194  2 At d  2       
   152     0.083738  -0.094765  1 At d  1              37    -0.094765  -0.083738  1 At d -2       

 Vector   21  Occ=1.000000D+00  E=-1.636980D+00
              MO Center=  1.4D-05, -9.9D-11,  9.7D-10, r^2= 3.2D-01
  Bfn.         Coefficient        Function           Bfn.         Coefficient        Function  
  ----     -------------------  ------------         ----     -------------------  ------------
    99    -0.000000  -0.219887  2 At d -1              43    -0.000000   0.219869  1 At d -1       
   212    -0.190427   0.000000  2 At d  0             156     0.190412   0.000000  1 At d  0       
    94    -0.000000  -0.143889  2 At d -1              38    -0.000000   0.143877  1 At d -1       
   207    -0.124611   0.000000  2 At d  0             151     0.124601   0.000000  1 At d  0       
   101    -0.124126   0.000000  2 At d  1             210    -0.000000  -0.124126  2 At d -2       

 Vector   22  Occ=1.000000D+00  E=-1.636980D+00
              MO Center=  3.1D-05, -4.9D-09,  3.6D-10, r^2= 7.0D-01
  Bfn.         Coefficient        Function           Bfn.         Coefficient        Function  
  ----     -------------------  ------------         ----     -------------------  ------------
   211    -0.142386   0.167560  2 At d -1             155     0.142374  -0.167547  1 At d -1       
   100     0.145112   0.123309  2 At d  0              44    -0.145100  -0.123300  1 At d  0       
   206    -0.093174   0.109648  2 At d -1             150     0.093166  -0.109639  1 At d -1       
    95     0.094958   0.080691  2 At d  0              39    -0.094950  -0.080684  1 At d  0       
   213    -0.094588  -0.080377  2 At d  1              98     0.080377  -0.094588  2 At d -2       

 Vector   23  Occ=1.000000D+00  E=-1.636762D+00
              MO Center= -1.4D-05,  4.3D-11, -8.3D-10, r^2= 3.1D-01
  Bfn.         Coefficient        Function           Bfn.         Coefficient        Function  
  ----     -------------------  ------------         ----     -------------------  ------------
    43     0.000000  -0.220034  1 At d -1              99    -0.000000  -0.220016  2 At d -1       
   156    -0.190555  -0.000000  1 At d  0             212    -0.190540   0.000000  2 At d  0       
    38     0.000000  -0.143927  1 At d -1              94    -0.000000  -0.143916  2 At d -1       
   151    -0.124645  -0.000000  1 At d  0             207    -0.124635   0.000000  2 At d  0       
    45    -0.122931  -0.000000  1 At d  1             154    -0.000000  -0.122931  1 At d -2       

 Vector   24  Occ=1.000000D+00  E=-1.636762D+00
              MO Center= -2.4D-05,  5.3D-09,  1.7D-09, r^2= 5.4D-01
  Bfn.         Coefficient        Function           Bfn.         Coefficient        Function  
  ----     -------------------  ------------         ----     -------------------  ------------
   155     0.178194  -0.129080  1 At d -1             211     0.178180  -0.129069  2 At d -1       
    44    -0.111786  -0.154321  1 At d  0             100    -0.111777  -0.154309  2 At d  0       
   150     0.116560  -0.084433  1 At d -1             206     0.116550  -0.084426  2 At d -1       
    39    -0.073121  -0.100943  1 At d  0              95    -0.073115  -0.100936  2 At d  0       
   157     0.072116   0.099556  1 At d  1              42    -0.099556   0.072116  1 At d -2       

 Vector   25  Occ=1.000000D+00  E=-1.509205D+00
              MO Center=  2.0D-06, -3.8D-11,  1.3D-09, r^2= 5.7D-01
  Bfn.         Coefficient        Function           Bfn.         Coefficient        Function  
  ----     -------------------  ------------         ----     -------------------  ------------
   214    -0.242222   0.000000  2 At d  2             158    -0.242220  -0.000000  1 At d  2       
   210     0.000000   0.172713  2 At d -2             101    -0.172713  -0.000000  2 At d  1       
    45    -0.172712   0.000000  1 At d  1             154    -0.000000   0.172712  1 At d -2       
   212     0.139847  -0.000000  2 At d  0             156     0.139846   0.000000  1 At d  0       
   219    -0.137580  -0.000000  2 At d  2             163    -0.137579  -0.000000  1 At d  2       

 Vector   26  Occ=1.000000D+00  E=-1.509205D+00
              MO Center=  4.8D-06, -1.1D-09,  7.9D-11, r^2= 1.3D+00
  Bfn.         Coefficient        Function           Bfn.         Coefficient        Function  
  ----     -------------------  ------------         ----     -------------------  ------------
   102     0.210272  -0.120238  2 At d  2              46     0.210271  -0.120237  1 At d  2       
    98     0.085734   0.149932  2 At d -2             213    -0.149932   0.085734  2 At d  1       
   157    -0.149931   0.085733  1 At d  1              42     0.085734   0.149931  1 At d -2       
   100    -0.121401   0.069419  2 At d  0              44    -0.121400   0.069419  1 At d  0       
   107     0.119433  -0.068294  2 At d  2              51     0.119432  -0.068294  1 At d  2       

 Vector   27  Occ=1.000000D+00  E=-1.506222D+00
              MO Center= -2.1D-06, -1.7D-11,  1.2D-09, r^2= 5.4D-01
  Bfn.         Coefficient        Function           Bfn.         Coefficient        Function  
  ----     -------------------  ------------         ----     -------------------  ------------
   158    -0.248935  -0.000000  1 At d  2             214     0.248933   0.000000  2 At d  2       
    45    -0.167686   0.000000  1 At d  1             154    -0.000000   0.167686  1 At d -2       
   210     0.000000  -0.167685  2 At d -2             101     0.167685  -0.000000  2 At d  1       
   156     0.143723  -0.000000  1 At d  0             212    -0.143722   0.000000  2 At d  0       
   163    -0.140565  -0.000000  1 At d  2             219     0.140564   0.000000  2 At d  2       

 Vector   28  Occ=1.000000D+00  E=-1.506222D+00
              MO Center= -3.1D-06, -6.0D-10,  3.1D-10, r^2= 8.4D-01
  Bfn.         Coefficient        Function           Bfn.         Coefficient        Function  
  ----     -------------------  ------------         ----     -------------------  ------------
    46     0.135034  -0.209128  1 At d  2             102    -0.135033   0.209127  2 At d  2       
   157    -0.090961   0.140871  1 At d  1              42     0.140871   0.090961  1 At d -2       
    98    -0.140870  -0.090960  2 At d -2             213     0.090960  -0.140870  2 At d  1       
    44    -0.077962   0.120740  1 At d  0             100     0.077961  -0.120739  2 At d  0       
    51     0.076249  -0.118088  1 At d  2             107    -0.076249   0.118087  2 At d  2       

 Vector   29  Occ=1.000000D+00  E=-1.501649D+00
              MO Center=  7.6D-06, -2.5D-09,  1.3D-09, r^2= 9.7D-01
  Bfn.         Coefficient        Function           Bfn.         Coefficient        Function  
  ----     -------------------  ------------         ----     -------------------  ------------
   213    -0.046594   0.203615  2 At d  1              98    -0.203615  -0.046594  2 At d -2       
   157     0.046594  -0.203613  1 At d  1              42     0.203613   0.046593  1 At d -2       
   218    -0.026547   0.116008  2 At d  1             103    -0.116008  -0.026547  2 At d -2       
   162     0.026546  -0.116006  1 At d  1              47     0.116006   0.026546  1 At d -2       
   211    -0.114404  -0.026180  2 At d -1             155     0.114403   0.026179  1 At d -1       

 Vector   30  Occ=1.000000D+00  E=-1.501649D+00
              MO Center=  7.4D-06,  5.7D-10,  1.3D-09, r^2= 9.9D-01
  Bfn.         Coefficient        Function           Bfn.         Coefficient        Function  
  ----     -------------------  ------------         ----     -------------------  ------------
   101     0.208879  -0.000000  2 At d  1             210     0.000000   0.208879  2 At d -2       
    45    -0.208876   0.000000  1 At d  1             154     0.000000  -0.208876  1 At d -2       
   106     0.119007  -0.000000  2 At d  1             215     0.000000   0.119007  2 At d -2       
    50    -0.119005   0.000000  1 At d  1             159     0.000000  -0.119005  1 At d -2       
    99    -0.000000  -0.117362  2 At d -1              43     0.000000   0.117360  1 At d -1       

 Vector   31  Occ=1.000000D+00  E=-1.500222D+00
              MO Center= -6.7D-06, -1.0D-09,  1.6D-09, r^2= 9.0D-01
  Bfn.         Coefficient        Function           Bfn.         Coefficient        Function  
  ----     -------------------  ------------         ----     -------------------  ------------
   157     0.090124  -0.194329  1 At d  1              42     0.194329   0.090124  1 At d -2       
   213     0.090123  -0.194326  2 At d  1              98     0.194326   0.090123  2 At d -2       
   162     0.051190  -0.110378  1 At d  1              47     0.110378   0.051190  1 At d -2       
   218     0.051190  -0.110376  2 At d  1             103     0.110376   0.051190  2 At d -2       
   155     0.107575   0.049890  1 At d -1             211     0.107573   0.049890  2 At d -1       

 Vector   32  Occ=1.000000D+00  E=-1.500222D+00
              MO Center= -7.7D-06,  4.6D-10,  9.8D-10, r^2= 9.9D-01
  Bfn.         Coefficient        Function           Bfn.         Coefficient        Function  
  ----     -------------------  ------------         ----     -------------------  ------------
    45     0.214210  -0.000000  1 At d  1             154    -0.000000   0.214210  1 At d -2       
   101     0.214207   0.000000  2 At d  1             210    -0.000000   0.214207  2 At d -2       
    50     0.121671  -0.000000  1 At d  1             159    -0.000000   0.121671  1 At d -2       
   106     0.121669   0.000000  2 At d  1             215    -0.000000   0.121669  2 At d -2       
    43    -0.000000  -0.118581  1 At d -1              99     0.000000  -0.118579  2 At d -1       

 Vector   33  Occ=1.000000D+00  E=-1.488993D+00
              MO Center=  9.3D-09,  2.8D-12, -2.5D-13, r^2= 1.8D-04
  Bfn.         Coefficient        Function           Bfn.         Coefficient        Function  
  ----     -------------------  ------------         ----     -------------------  ------------
    99     0.000000   0.262868  2 At d -1              43     0.000000   0.262840  1 At d -1       
   212    -0.227651   0.000000  2 At d  0             156    -0.227626  -0.000000  1 At d  0       
   104     0.000000   0.148995  2 At d -1              48     0.000000   0.148979  1 At d -1       
    94     0.000000   0.138770  2 At d -1              38     0.000000   0.138755  1 At d -1       
   214    -0.131434  -0.000000  2 At d  2             158    -0.131420   0.000000  1 At d  2       

 Vector   34  Occ=1.000000D+00  E=-1.488993D+00
              MO Center=  6.7D-06, -7.0D-11,  3.3D-10, r^2= 1.1D-01
  Bfn.         Coefficient        Function           Bfn.         Coefficient        Function  
  ----     -------------------  ------------         ----     -------------------  ------------
   211    -0.251557  -0.076280  2 At d -1             155    -0.251530  -0.076272  1 At d -1       
   100     0.066060  -0.217855  2 At d  0              44     0.066053  -0.217832  1 At d  0       
   216    -0.142584  -0.043236  2 At d -1             160    -0.142569  -0.043231  1 At d -1       
   206    -0.132799  -0.040268  2 At d -1             150    -0.132784  -0.040264  1 At d -1       
   102     0.038140  -0.125779  2 At d  2              46     0.038136  -0.125765  1 At d  2       

 Vector   35  Occ=1.000000D+00  E=-1.488833D+00
              MO Center= -5.8D-12, -4.5D-13,  1.2D-13, r^2= 3.3D-06
  Bfn.         Coefficient        Function           Bfn.         Coefficient        Function  
  ----     -------------------  ------------         ----     -------------------  ------------
    43    -0.000000  -0.263138  1 At d -1              99    -0.000000   0.263110  2 At d -1       
   156     0.227884   0.000000  1 At d  0             212    -0.227860   0.000000  2 At d  0       
    48    -0.000000  -0.149093  1 At d -1             104    -0.000000   0.149077  2 At d -1       
    38    -0.000000  -0.138889  1 At d -1              94    -0.000000   0.138874  2 At d -1       
   158     0.131569   0.000000  1 At d  2             214    -0.131555   0.000000  2 At d  2       

 Vector   36  Occ=1.000000D+00  E=-1.488833D+00
              MO Center= -1.2D-06, -2.2D-11,  9.1D-12, r^2= 1.9D-02
  Bfn.         Coefficient        Function           Bfn.         Coefficient        Function  
  ----     -------------------  ------------         ----     -------------------  ------------
   155    -0.261244   0.031514  1 At d -1             211     0.261216  -0.031511  2 At d -1       
    44    -0.027292  -0.226244  1 At d  0             100     0.027289   0.226220  2 At d  0       
   160    -0.148020   0.017856  1 At d -1             216     0.148004  -0.017854  2 At d -1       
   150    -0.137890   0.016634  1 At d -1             206     0.137875  -0.016632  2 At d -1       
    46    -0.015757  -0.130622  1 At d  2             102     0.015756   0.130608  2 At d  2       

 Vector   37  Occ=1.000000D+00  E=-8.025732D-01
              MO Center=  3.0D-11,  1.1D-12, -3.7D-11, r^2= 2.9D-04
  Bfn.         Coefficient        Function           Bfn.         Coefficient        Function  
  ----     -------------------  ------------         ----     -------------------  ------------
   175    -0.633897   0.000000  2 At s                119    -0.633896  -0.000000  1 At s          
   173     0.570971  -0.000000  2 At s                117     0.570970   0.000000  1 At s          
   172    -0.380167   0.000000  2 At s                116    -0.380166  -0.000000  1 At s          
   176    -0.280061   0.000000  2 At s                120    -0.280061  -0.000000  1 At s          
   174     0.198117   0.000000  2 At s                118     0.198117   0.000000  1 At s          

 Vector   38  Occ=1.000000D+00  E=-8.025732D-01
              MO Center=  3.8D-07,  5.4D-09, -2.0D-09, r^2= 6.0D-01
  Bfn.         Coefficient        Function           Bfn.         Coefficient        Function  
  ----     -------------------  ------------         ----     -------------------  ------------
    63    -0.280613  -0.568403  2 At s                  7    -0.280613  -0.568402  1 At s          
    61     0.252757   0.511979  2 At s                  5     0.252757   0.511978  1 At s          
    60    -0.168292  -0.340888  2 At s                  4    -0.168292  -0.340888  1 At s          
    64    -0.123977  -0.251125  2 At s                  8    -0.123977  -0.251125  1 At s          
    62     0.087703   0.177648  2 At s                  6     0.087702   0.177648  1 At s          

 Vector   39  Occ=1.000000D+00  E=-7.533763D-01
              MO Center= -1.5D-06,  2.9D-08, -2.5D-09, r^2= 2.9D+00
  Bfn.         Coefficient        Function           Bfn.         Coefficient        Function  
  ----     -------------------  ------------         ----     -------------------  ------------
     7     0.593110  -0.071848  1 At s                 63    -0.593109   0.071848  2 At s          
     5    -0.534251   0.064718  1 At s                 61     0.534250  -0.064718  2 At s          
     4     0.353095  -0.042773  1 At s                 60    -0.353094   0.042773  2 At s          
   119     0.315806   0.000000  1 At s                175    -0.315805  -0.000000  2 At s          
   117    -0.284466  -0.000000  1 At s                173     0.284466   0.000000  2 At s          

 Vector   40  Occ=1.000000D+00  E=-7.533763D-01
              MO Center= -4.1D-07,  8.1D-09, -6.0D-09, r^2= 8.0D-01
  Bfn.         Coefficient        Function           Bfn.         Coefficient        Function  
  ----     -------------------  ------------         ----     -------------------  ------------
   119    -0.597446   0.000000  1 At s                175     0.597445  -0.000000  2 At s          
   117     0.538157  -0.000000  1 At s                173    -0.538156   0.000000  2 At s          
   116    -0.355676   0.000000  1 At s                172     0.355676  -0.000000  2 At s          
     7     0.313514  -0.037978  1 At s                 63    -0.313513   0.037978  2 At s          
     5    -0.282401   0.034209  1 At s                 61     0.282401  -0.034209  2 At s          

 Vector   41  Occ=1.000000D+00  E=-3.972244D-01
              MO Center=  4.0D-07,  7.8D-09, -6.7D-09, r^2= 2.9D+00
  Bfn.         Coefficient        Function           Bfn.         Coefficient        Function  
  ----     -------------------  ------------         ----     -------------------  ------------
    77    -0.396728  -0.088239  2 At px                21     0.396728   0.088239  1 At px         
    71     0.221564   0.049279  2 At px                15    -0.221564  -0.049279  1 At px         
    80    -0.213069  -0.047390  2 At px                24     0.213069   0.047390  1 At px         
   191     0.199311   0.044330  2 At pz                78    -0.044330   0.199311  2 At py         
    22     0.044330  -0.199310  1 At py               135    -0.199310  -0.044330  1 At pz         

 Vector   42  Occ=1.000000D+00  E=-3.972244D-01
              MO Center=  3.2D-07,  9.1D-10,  1.4D-09, r^2= 5.5D-01
  Bfn.         Coefficient        Function           Bfn.         Coefficient        Function  
  ----     -------------------  ------------         ----     -------------------  ------------
   189    -0.406422   0.000000  2 At px               133     0.406422  -0.000000  1 At px         
   183     0.226978  -0.000000  2 At px               127    -0.226978   0.000000  1 At px         
   192    -0.218276   0.000000  2 At px               136     0.218276   0.000000  1 At px         
    79    -0.204181   0.000000  2 At pz               190    -0.000000  -0.204181  2 At py         
   134    -0.000000   0.204181  1 At py                23     0.204181   0.000000  1 At pz         

 Vector   43  Occ=1.000000D+00  E=-3.629830D-01
              MO Center= -4.3D-07,  3.5D-09,  1.7D-09, r^2= 6.1D-01
  Bfn.         Coefficient        Function           Bfn.         Coefficient        Function  
  ----     -------------------  ------------         ----     -------------------  ------------
   135     0.307560  -0.088280  1 At pz                22     0.088280   0.307560  1 At py         
   191     0.307560  -0.088280  2 At pz                78     0.088280   0.307560  2 At py         
    21    -0.201638   0.057877  1 At px                77    -0.201638   0.057877  2 At px         
    16    -0.054082  -0.188418  1 At py               129    -0.188418   0.054082  1 At pz         
   185    -0.188418   0.054082  2 At pz                72    -0.054082  -0.188418  2 At py         

 Vector   44  Occ=1.000000D+00  E=-3.629830D-01
              MO Center= -2.0D-07,  1.5D-09,  5.5D-09, r^2= 1.7D+00
  Bfn.         Coefficient        Function           Bfn.         Coefficient        Function  
  ----     -------------------  ------------         ----     -------------------  ------------
    23     0.319979   0.000000  1 At pz               134    -0.000000   0.319979  1 At py         
    79     0.319979  -0.000000  2 At pz               190     0.000000   0.319979  2 At py         
   133     0.209780   0.000000  1 At px               189     0.209780  -0.000000  2 At px         
   128     0.000000  -0.196026  1 At py                17    -0.196026  -0.000000  1 At pz         
    73    -0.196026   0.000000  2 At pz               184    -0.000000  -0.196026  2 At py         

 Vector   45  Occ=1.000000D+00  E=-2.709689D-01
              MO Center=  2.7D-07, -6.7D-10,  4.0D-09, r^2= 2.1D+00
  Bfn.         Coefficient        Function           Bfn.         Coefficient        Function  
  ----     -------------------  ------------         ----     -------------------  ------------
   193    -0.000000   0.281626  2 At py                82    -0.281626  -0.000000  2 At pz         
   137    -0.000000   0.281626  1 At py                26    -0.281626  -0.000000  1 At pz         
   190    -0.000000   0.273339  2 At py                79    -0.273339  -0.000000  2 At pz         
   134    -0.000000   0.273339  1 At py                23    -0.273339  -0.000000  1 At pz         
    73     0.132564   0.000000  2 At pz               184     0.000000  -0.132564  2 At py         

 Vector   46  Occ=1.000000D+00  E=-2.709689D-01
              MO Center=  4.1D-08, -9.7D-09,  8.0D-10, r^2= 7.7D-01
  Bfn.         Coefficient        Function           Bfn.         Coefficient        Function  
  ----     -------------------  ------------         ----     -------------------  ------------
    81    -0.168886   0.225369  2 At py               194    -0.225369  -0.168886  2 At pz         
    25    -0.168886   0.225368  1 At py               138    -0.225369  -0.168886  1 At pz         
    78    -0.163916   0.218737  2 At py               191    -0.218736  -0.163916  2 At pz         
    22    -0.163916   0.218736  1 At py               135    -0.218736  -0.163916  1 At pz         
   185     0.106083   0.079496  2 At pz                72     0.079496  -0.106083  2 At py         

 Vector   47  Occ=1.000000D+00  E=-2.643145D-01
              MO Center= -8.8D-08, -3.9D-10, -2.3D-09, r^2= 1.6D+00
  Bfn.         Coefficient        Function           Bfn.         Coefficient        Function  
  ----     -------------------  ------------         ----     -------------------  ------------
   134     0.000000  -0.230466  1 At py                23    -0.230466  -0.000000  1 At pz         
    79     0.230466   0.000000  2 At pz               190     0.000000   0.230466  2 At py         
   137     0.000000  -0.190450  1 At py                26    -0.190450  -0.000000  1 At pz         
    82     0.190450   0.000000  2 At pz               193     0.000000   0.190450  2 At py         
   135     0.128849   0.108297  1 At pz                78     0.108297  -0.128849  2 At py         

 Vector   48  Occ=1.000000D+00  E=-2.643145D-01
              MO Center= -8.0D-08, -2.3D-09,  1.2D-09, r^2= 1.5D+00
  Bfn.         Coefficient        Function           Bfn.         Coefficient        Function  
  ----     -------------------  ------------         ----     -------------------  ------------
    22     0.148285  -0.176427  1 At py               135    -0.176427  -0.148285  1 At pz         
   191     0.176427   0.148285  2 At pz                78    -0.148285   0.176426  2 At py         
    25     0.122538  -0.145793  1 At py               138    -0.145793  -0.122538  1 At pz         
   194     0.145793   0.122538  2 At pz                81    -0.122538   0.145793  2 At py         
    23    -0.168316  -0.000000  1 At pz               190    -0.000000   0.168316  2 At py         

 Vector   49  Occ=1.000000D+00  E=-2.203611D-01
              MO Center= -2.6D-07, -5.8D-10,  2.3D-09, r^2= 2.4D+00
  Bfn.         Coefficient        Function           Bfn.         Coefficient        Function  
  ----     -------------------  ------------         ----     -------------------  ------------
   137    -0.000038   0.324173  1 At py                26    -0.324173  -0.000038  1 At pz         
   193     0.000038  -0.324172  2 At py                82     0.324172   0.000038  2 At pz         
   134    -0.000034   0.293506  1 At py                23    -0.293506  -0.000034  1 At pz         
   190     0.000034  -0.293506  2 At py                79     0.293506   0.000034  2 At pz         
   128     0.000017  -0.141750  1 At py                17     0.141750   0.000017  1 At pz         

 Vector   50  Occ=1.000000D+00  E=-2.203611D-01
              MO Center= -2.1D-09, -4.5D-10, -5.4D-10, r^2= 9.8D-02
  Bfn.         Coefficient        Function           Bfn.         Coefficient        Function  
  ----     -------------------  ------------         ----     -------------------  ------------
    25    -0.042435  -0.321383  1 At py               138     0.321383  -0.042435  1 At pz         
    81     0.042435   0.321383  2 At py               194    -0.321383   0.042435  2 At pz         
    22    -0.038420  -0.290981  1 At py               135     0.290981  -0.038420  1 At pz         
    78     0.038420   0.290981  2 At py               191    -0.290981   0.038420  2 At pz         
    16     0.018555   0.140530  1 At py               129    -0.140530   0.018555  1 At pz         

 Vector   51  Occ=0.000000D+00  E=-1.353896D-01
              MO Center= -5.0D-08,  2.5D-10,  7.0D-09, r^2= 4.9D+00
  Bfn.         Coefficient        Function           Bfn.         Coefficient        Function  
  ----     -------------------  ------------         ----     -------------------  ------------
    24     0.558430  -0.042077  1 At px                80     0.558430  -0.042077  2 At px         
    21     0.408365  -0.030770  1 At px                77     0.408365  -0.030770  2 At px         
    71    -0.218988   0.016501  2 At px                15    -0.218988   0.016501  1 At px         
    63    -0.152754   0.011510  2 At s                  7     0.152754  -0.011510  1 At s          
    18    -0.135559   0.010214  1 At px                74    -0.135559   0.010214  2 At px         

 Vector   52  Occ=0.000000D+00  E=-1.353896D-01
              MO Center=  8.8D-09, -6.5D-10,  9.1D-10, r^2= 3.2D-01
  Bfn.         Coefficient        Function           Bfn.         Coefficient        Function  
  ----     -------------------  ------------         ----     -------------------  ------------
   136    -0.560013   0.000000  1 At px               192    -0.560013  -0.000000  2 At px         
   133    -0.409523   0.000000  1 At px               189    -0.409523   0.000000  2 At px         
   183     0.219608  -0.000000  2 At px               127     0.219608   0.000000  1 At px         
   175     0.153187  -0.000000  2 At s                119    -0.153187  -0.000000  1 At s          
   130     0.135943  -0.000000  1 At px               186     0.135943   0.000000  2 At px         

 Vector   53  Occ=0.000000D+00  E= 2.416002D-01
              MO Center=  4.8D-06,  9.3D-07, -3.8D-07, r^2= 4.9D+00
  Bfn.         Coefficient        Function           Bfn.         Coefficient        Function  
  ----     -------------------  ------------         ----     -------------------  ------------
    63    -1.506155  -1.058621  2 At s                  7    -1.506152  -1.058618  1 At s          
    64     1.114943   0.783652  2 At s                  8     1.114942   0.783651  1 At s          
    62     0.495219   0.348071  2 At s                  6     0.495218   0.348070  1 At s          
    80     0.309599   0.217606  2 At px                24    -0.309596  -0.217603  1 At px         
    77    -0.248261  -0.174494  2 At px                21     0.248259   0.174491  1 At px         

 Vector   54  Occ=0.000000D+00  E= 2.416002D-01
              MO Center=  1.5D-07,  4.0D-10,  8.0D-08, r^2= 3.5D-02
  Bfn.         Coefficient        Function           Bfn.         Coefficient        Function  
  ----     -------------------  ------------         ----     -------------------  ------------
   175    -1.840973   0.000001  2 At s                119    -1.840969   0.000000  1 At s          
   176     1.362794  -0.000001  2 At s                120     1.362792  -0.000000  1 At s          
   174     0.605306  -0.000000  2 At s                118     0.605305  -0.000000  1 At s          
   192     0.378423  -0.000000  2 At px               136    -0.378419  -0.000000  1 At px         
   189    -0.303449   0.000000  2 At px               133     0.303446   0.000000  1 At px         

 Vector   55  Occ=0.000000D+00  E= 2.455374D-01
              MO Center=  6.8D-08, -2.0D-07,  6.5D-07, r^2= 1.2D+00
  Bfn.         Coefficient        Function           Bfn.         Coefficient        Function  
  ----     -------------------  ------------         ----     -------------------  ------------
   136    -0.737791  -0.000001  1 At px               192    -0.737789  -0.000001  2 At px         
   119    -0.583298  -0.000001  1 At s                175     0.583289  -0.000000  2 At s          
   133     0.558981   0.000001  1 At px               189     0.558979   0.000001  2 At px         
   134    -0.000001   0.389603  1 At py                23     0.389603   0.000000  1 At pz         
    79     0.389603   0.000001  2 At pz               190    -0.000001   0.389602  2 At py         

 Vector   56  Occ=0.000000D+00  E= 2.455374D-01
              MO Center= -4.8D-08, -9.1D-08, -3.0D-08, r^2= 1.3D+00
  Bfn.         Coefficient        Function           Bfn.         Coefficient        Function  
  ----     -------------------  ------------         ----     -------------------  ------------
    24     0.074118  -0.734058  1 At px                80     0.074118  -0.734056  2 At px         
     7     0.058597  -0.580347  1 At s                 63    -0.058598   0.580338  2 At s          
    21    -0.056155   0.556153  1 At px                77    -0.056155   0.556152  2 At px         
    22     0.387632   0.039139  1 At py               135     0.039139  -0.387632  1 At pz         
   191     0.039139  -0.387632  2 At pz                78     0.387632   0.039139  2 At py         

 Vector   57  Occ=0.000000D+00  E= 2.599799D-01
              MO Center= -8.1D-09, -3.5D-09, -3.3D-08, r^2= 2.4D-01
  Bfn.         Coefficient        Function           Bfn.         Coefficient        Function  
  ----     -------------------  ------------         ----     -------------------  ------------
   175     0.851181  -0.000000  2 At s                119     0.851181  -0.000000  1 At s          
   176    -0.566329   0.000000  2 At s                120    -0.566329   0.000000  1 At s          
   224     0.509228  -0.000000  2 At d  2             168     0.509228   0.000000  1 At d  2       
   133     0.493316  -0.000000  1 At px               189    -0.493316  -0.000000  2 At px         
   136    -0.454959   0.000000  1 At px               192     0.454958   0.000000  2 At px         

 Vector   58  Occ=0.000000D+00  E= 2.599799D-01
              MO Center= -2.8D-08,  5.8D-08, -1.6D-08, r^2= 4.2D+00
  Bfn.         Coefficient        Function           Bfn.         Coefficient        Function  
  ----     -------------------  ------------         ----     -------------------  ------------
    63    -0.846302  -0.091005  2 At s                  7    -0.846302  -0.091004  1 At s          
    64     0.563083   0.060550  2 At s                  8     0.563083   0.060549  1 At s          
   112    -0.506309  -0.054444  2 At d  2              56    -0.506309  -0.054444  1 At d  2       
    21    -0.490488  -0.052743  1 At px                77     0.490488   0.052743  2 At px         
    24     0.452351   0.048642  1 At px                80    -0.452351  -0.048642  2 At px         

 Vector   59  Occ=0.000000D+00  E= 2.863955D-01
              MO Center= -8.8D-08,  5.7D-09, -1.8D-08, r^2= 2.1D+00
  Bfn.         Coefficient        Function           Bfn.         Coefficient        Function  
  ----     -------------------  ------------         ----     -------------------  ------------
    55    -0.533868  -0.000001  1 At d  1             111     0.533868   0.000001  2 At d  1       
   220    -0.000003   0.533848  2 At d -2             164     0.000003  -0.533848  1 At d -2       
    50     0.204944   0.000000  1 At d  1             106    -0.204944  -0.000000  2 At d  1       
   159    -0.000001   0.204937  1 At d -2             215     0.000001  -0.204937  2 At d -2       
    52    -0.169690  -0.018694  1 At d -2             108     0.169690   0.018694  2 At d -2       

 Vector   60  Occ=0.000000D+00  E= 2.863955D-01
              MO Center=  5.1D-08,  1.8D-08,  6.5D-09, r^2= 2.1D+00
  Bfn.         Coefficient        Function           Bfn.         Coefficient        Function  
  ----     -------------------  ------------         ----     -------------------  ------------
   167     0.058389  -0.530666  1 At d  1             223    -0.058389   0.530666  2 At d  1       
   108    -0.530646  -0.058384  2 At d -2              52     0.530646   0.058384  1 At d -2       
   162    -0.022415   0.203715  1 At d  1             218     0.022415  -0.203715  2 At d  1       
    47    -0.203708  -0.022413  1 At d -2             103     0.203708   0.022413  2 At d -2       
   164    -0.000023  -0.170716  1 At d -2             220     0.000023   0.170716  2 At d -2       

 Vector   61  Occ=0.000000D+00  E= 2.864993D-01
              MO Center= -1.4D-07,  1.1D-08, -4.2D-08, r^2= 1.7D+00
  Bfn.         Coefficient        Function           Bfn.         Coefficient        Function  
  ----     -------------------  ------------         ----     -------------------  ------------
   119     0.546877  -0.000001  1 At s                175    -0.546876   0.000000  2 At s          
   136     0.474767  -0.000000  1 At px               192     0.474767  -0.000000  2 At px         
   164    -0.000003  -0.466340  1 At d -2             220     0.000003   0.466340  2 At d -2       
    55     0.466316   0.000002  1 At d  1             111    -0.466316  -0.000002  2 At d  1       
   189    -0.451704   0.000000  2 At px               133    -0.451704   0.000000  1 At px         

 Vector   62  Occ=0.000000D+00  E= 2.864993D-01
              MO Center= -5.8D-08,  2.5D-08,  9.8D-09, r^2= 1.7D+00
  Bfn.         Coefficient        Function           Bfn.         Coefficient        Function  
  ----     -------------------  ------------         ----     -------------------  ------------
     7    -0.074219   0.541817  1 At s                 63     0.074219  -0.541817  2 At s          
    24    -0.064432   0.470375  1 At px                80    -0.064432   0.470375  2 At px         
    52    -0.462025  -0.063291  1 At d -2             108     0.462025   0.063291  2 At d -2       
   167     0.063283  -0.462002  1 At d  1             223    -0.063283   0.462002  2 At d  1       
    77     0.061302  -0.447525  2 At px                21     0.061303  -0.447525  1 At px         

 Vector   63  Occ=0.000000D+00  E= 3.269562D-01
              MO Center=  2.0D-04,  5.7D-06, -4.7D-05, r^2= 3.0D+00
  Bfn.         Coefficient        Function           Bfn.         Coefficient        Function  
  ----     -------------------  ------------         ----     -------------------  ------------
    82     0.672698  -0.000007  2 At pz               193     0.000007   0.672698  2 At py         
   137    -0.000002  -0.672548  1 At py                26    -0.672548   0.000002  1 At pz         
    79    -0.655513   0.000008  2 At pz               190    -0.000008  -0.655513  2 At py         
   134     0.000001   0.655336  1 At py                23     0.655336  -0.000001  1 At pz         
   168    -0.237457   0.000003  1 At d  2             224    -0.237379   0.000000  2 At d  2       

 Vector   64  Occ=0.000000D+00  E= 3.269562D-01
              MO Center=  1.2D-04,  4.9D-05,  7.8D-06, r^2= 2.3D+00
  Bfn.         Coefficient        Function           Bfn.         Coefficient        Function  
  ----     -------------------  ------------         ----     -------------------  ------------
   194    -0.374643   0.558717  2 At pz                81    -0.558717  -0.374643  2 At py         
    25     0.558596   0.374555  1 At py               138     0.374555  -0.558596  1 At pz         
   191     0.365073  -0.544444  2 At pz                78     0.544444   0.365073  2 At py         
    22    -0.544301  -0.364969  1 At py               135    -0.364969   0.544301  1 At pz         
    56    -0.132247   0.197223  1 At d  2             112    -0.132201   0.197159  2 At d  2       

 Vector   65  Occ=0.000000D+00  E= 3.270145D-01
              MO Center= -1.9D-04,  7.3D-07, -7.3D-06, r^2= 1.8D+00
  Bfn.         Coefficient        Function           Bfn.         Coefficient        Function  
  ----     -------------------  ------------         ----     -------------------  ------------
   119     1.197334  -0.000007  1 At s                175    -1.197324   0.000008  2 At s          
   176     0.968796  -0.000006  2 At s                120    -0.968789   0.000006  1 At s          
    23     0.519146   0.000001  1 At pz               134    -0.000001   0.519146  1 At py         
    79     0.518924  -0.000008  2 At pz               190     0.000008   0.518924  2 At py         
    26    -0.439720  -0.000002  1 At pz               137     0.000002  -0.439720  1 At py         

 Vector   66  Occ=0.000000D+00  E= 3.270145D-01
              MO Center= -7.9D-05,  4.7D-05,  2.7D-05, r^2= 2.0D+00
  Bfn.         Coefficient        Function           Bfn.         Coefficient        Function  
  ----     -------------------  ------------         ----     -------------------  ------------
     7     0.807773   0.883804  1 At s                 63    -0.807767  -0.883798  2 At s          
    64     0.653592   0.715110  2 At s                  8    -0.653587  -0.715106  1 At s          
   135    -0.350242  -0.383201  1 At pz                22     0.383201  -0.350242  1 At py         
   191    -0.350086  -0.383044  2 At pz                78     0.383044  -0.350086  2 At py         
   138     0.296658   0.324573  1 At pz                25    -0.324573   0.296657  1 At py         

 Vector   67  Occ=0.000000D+00  E= 3.569294D-01
              MO Center=  1.7D-08,  1.2D-09,  4.1D-09, r^2= 9.0D-02
  Bfn.         Coefficient        Function           Bfn.         Coefficient        Function  
  ----     -------------------  ------------         ----     -------------------  ------------
   109     0.000000   0.559876  2 At d -1              53     0.000000   0.559876  1 At d -1       
   166     0.484867  -0.000000  1 At d  0             222     0.484867  -0.000000  2 At d  0       
   224     0.279938  -0.000000  2 At d  2             168     0.279938  -0.000000  1 At d  2       
   165     0.214909  -0.025209  1 At d -1             221     0.214909  -0.025209  2 At d -1       
    48    -0.000000  -0.200257  1 At d -1             104    -0.000000  -0.200257  2 At d -1       

 Vector   68  Occ=0.000000D+00  E= 3.569294D-01
              MO Center=  4.3D-08, -1.2D-08,  1.9D-09, r^2= 1.1D-01
  Bfn.         Coefficient        Function           Bfn.         Coefficient        Function  
  ----     -------------------  ------------         ----     -------------------  ------------
   221    -0.556064   0.065226  2 At d -1             165    -0.556064   0.065226  1 At d -1       
    54     0.056488   0.481565  1 At d  0             110     0.056488   0.481565  2 At d  0       
   112     0.032613   0.278032  2 At d  2              56     0.032613   0.278032  1 At d  2       
    53    -0.000000   0.216382  1 At d -1             109     0.000000   0.216382  2 At d -1       
   160     0.198893  -0.023330  1 At d -1             216     0.198893  -0.023330  2 At d -1       

 Vector   69  Occ=0.000000D+00  E= 3.729950D-01
              MO Center=  8.8D-11,  1.2D-11,  5.8D-12, r^2= 7.4D-06
  Bfn.         Coefficient        Function           Bfn.         Coefficient        Function  
  ----     -------------------  ------------         ----     -------------------  ------------
   109    -0.000000   0.573410  2 At d -1              53    -0.000000   0.573410  1 At d -1       
   166    -0.496588  -0.000000  1 At d  0             222    -0.496588  -0.000000  2 At d  0       
   224    -0.286705  -0.000000  2 At d  2             168    -0.286705  -0.000000  1 At d  2       
   221    -0.229607   0.001141  2 At d -1             165    -0.229607   0.001141  1 At d -1       
    48     0.000000  -0.220750  1 At d -1             104     0.000000  -0.220750  2 At d -1       

 Vector   70  Occ=0.000000D+00  E= 3.729950D-01
              MO Center= -7.3D-10, -1.7D-11,  3.3D-11, r^2= 4.6D-05
  Bfn.         Coefficient        Function           Bfn.         Coefficient        Function  
  ----     -------------------  ------------         ----     -------------------  ------------
   221     0.573403  -0.002849  2 At d -1             165     0.573403  -0.002849  1 At d -1       
    54     0.002468   0.496582  1 At d  0             110     0.002468   0.496582  2 At d  0       
   112     0.001425   0.286702  2 At d  2              56     0.001425   0.286702  1 At d  2       
   109    -0.000000   0.229610  2 At d -1              53    -0.000000   0.229610  1 At d -1       
   160    -0.220747   0.001097  1 At d -1             216    -0.220747   0.001097  2 At d -1       

 Vector   71  Occ=0.000000D+00  E= 3.781832D-01
              MO Center=  3.1D-06,  1.7D-07, -1.5D-07, r^2= 2.9D+00
  Bfn.         Coefficient        Function           Bfn.         Coefficient        Function  
  ----     -------------------  ------------         ----     -------------------  ------------
   190    -0.000008   0.779573  2 At py                79    -0.779573  -0.000009  2 At pz         
    23    -0.779570  -0.000008  1 At pz               134    -0.000008   0.779570  1 At py         
   193     0.000006  -0.587708  2 At py                82     0.587708   0.000006  2 At pz         
    26     0.587706   0.000006  1 At pz               137     0.000006  -0.587706  1 At py         
   187     0.000002  -0.230533  2 At py                76     0.230533   0.000003  2 At pz         

 Vector   72  Occ=0.000000D+00  E= 3.781832D-01
              MO Center=  2.8D-06,  1.0D-07, -1.2D-07, r^2= 2.4D+00
  Bfn.         Coefficient        Function           Bfn.         Coefficient        Function  
  ----     -------------------  ------------         ----     -------------------  ------------
    78    -0.704351  -0.334101  2 At py               191     0.334101  -0.704351  2 At pz         
   135     0.334100  -0.704348  1 At pz                22    -0.704348  -0.334100  1 At py         
    81     0.531000   0.251874  2 At py               194    -0.251874   0.531000  2 At pz         
   138    -0.251873   0.530997  1 At pz                25     0.530997   0.251873  1 At py         
    75     0.208289   0.098800  2 At py               188    -0.098800   0.208289  2 At pz         

 Vector   73  Occ=0.000000D+00  E= 3.879176D-01
              MO Center= -3.0D-06, -5.9D-08,  8.5D-09, r^2= 3.1D+00
[...]
   178    -0.034816  -1.952001  2 At py                67     1.951999  -0.034820  2 At pz         
    14    -1.879229   0.033519  1 At pz               125     0.033521   1.879228  1 At py         
   181     0.033518   1.879212  2 At py                70    -1.879210   0.033522  2 At pz         
    17     0.525644  -0.009376  1 At pz               128    -0.009376  -0.525644  1 At py         

 Vector  210  Occ=0.000000D+00  E= 1.896800D+02
              MO Center= -2.6D-06,  3.8D-11,  4.4D-11, r^2= 5.4D-01
  Bfn.         Coefficient        Function           Bfn.         Coefficient        Function  
  ----     -------------------  ------------         ----     -------------------  ------------
   123    -1.405353   1.355202  1 At pz                10     1.355200   1.405354  1 At py         
    66     1.355190   1.405340  2 At py               179    -1.405341   1.355186  2 At pz         
   126     1.352948  -1.304667  1 At pz                13    -1.304665  -1.352949  1 At py         
    69    -1.304656  -1.352935  2 At py               182     1.352936  -1.304652  2 At pz         
   129    -0.378437   0.364932  1 At pz                16     0.364931   0.378437  1 At py         

 Vector  211  Occ=0.000000D+00  E= 1.897046D+02
              MO Center= -6.7D-06, -3.4D-10,  4.7D-10, r^2= 1.5D+00
  Bfn.         Coefficient        Function           Bfn.         Coefficient        Function  
  ----     -------------------  ------------         ----     -------------------  ------------
     9    -2.222417   0.380633  1 At px                65     2.222402  -0.380631  2 At px         
    12     2.140126  -0.366539  1 At px                68    -2.140111   0.366537  2 At px         
    10    -0.190413  -1.111877  1 At py                66     0.190416   1.111866  2 At py         
   123    -1.111852   0.190445  1 At pz               179     1.111848  -0.190440  2 At pz         
    13     0.183363   1.070715  1 At py                69    -0.183366  -1.070704  2 At py         

 Vector  212  Occ=0.000000D+00  E= 1.897046D+02
              MO Center= -1.1D-06, -2.7D-11,  1.8D-11, r^2= 3.8D-01
  Bfn.         Coefficient        Function           Bfn.         Coefficient        Function  
  ----     -------------------  ------------         ----     -------------------  ------------
   121     2.254777   0.000000  1 At px               177    -2.254761  -0.000000  2 At px         
   124    -2.171288  -0.000000  1 At px               180     2.171272   0.000000  2 At px         
   122    -0.000018  -1.128064  1 At py               178     0.000013   1.128053  2 At py         
    11    -1.128044  -0.000018  1 At pz                67     1.128039   0.000013  2 At pz         
   125     0.000018   1.086302  1 At py               181    -0.000013  -1.086292  2 At py         

 Vector  213  Occ=0.000000D+00  E= 1.897086D+02
              MO Center=  5.9D-06,  1.0D-10,  6.7D-10, r^2= 8.5D-01
  Bfn.         Coefficient        Function           Bfn.         Coefficient        Function  
  ----     -------------------  ------------         ----     -------------------  ------------
   178     0.873376  -1.640807  2 At py                67     1.640797   0.873393  2 At pz         
   122    -0.873365   1.640793  1 At py                11    -1.640781  -0.873387  1 At pz         
   181    -0.841041   1.580061  2 At py                70    -1.580052  -0.841058  2 At pz         
   125     0.841031  -1.580047  1 At py                14     1.580035   0.841052  1 At pz         
   179    -0.433195   0.414698  2 At pz               123     0.433195  -0.414696  1 At pz         

 Vector  214  Occ=0.000000D+00  E= 1.897086D+02
              MO Center=  3.8D-06, -2.7D-10,  1.6D-10, r^2= 6.1D-01
  Bfn.         Coefficient        Function           Bfn.         Coefficient        Function  
  ----     -------------------  ------------         ----     -------------------  ------------
    66     1.325092   1.303520  2 At py               179    -1.303506   1.325105  2 At pz         
    10    -1.325077  -1.303510  1 At py               123     1.303491  -1.325095  1 At pz         
    69    -1.276034  -1.255261  2 At py               182     1.255247  -1.276047  2 At pz         
    13     1.276020   1.255251  1 At py               126    -1.255233   1.276037  1 At pz         
    67    -0.537590  -0.265761  2 At pz                11     0.537590   0.265759  1 At pz         

 Vector  215  Occ=0.000000D+00  E= 1.897367D+02
              MO Center=  7.0D-06,  3.7D-10, -5.4D-10, r^2= 1.5D+00
  Bfn.         Coefficient        Function           Bfn.         Coefficient        Function  
  ----     -------------------  ------------         ----     -------------------  ------------
    65    -2.231957   0.373314  2 At px                 9    -2.231941   0.373311  1 At px         
    68     2.150531  -0.359695  2 At px                12     2.150516  -0.359692  1 At px         
   179    -1.105898   0.184968  2 At pz                66    -0.184973  -1.105894  2 At py         
    10    -0.184968  -1.105889  1 At py               123    -1.105887   0.184970  1 At pz         
   182     1.064642  -0.178067  2 At pz                69     0.178073   1.064638  2 At py         

 Vector  216  Occ=0.000000D+00  E= 1.897367D+02
              MO Center=  2.3D-06, -2.7D-11,  2.3D-11, r^2= 3.7D-01
  Bfn.         Coefficient        Function           Bfn.         Coefficient        Function  
  ----     -------------------  ------------         ----     -------------------  ------------
   177    -2.262961   0.000000  2 At px               121    -2.262945   0.000000  1 At px         
   180     2.180404  -0.000000  2 At px               124     2.180389  -0.000000  1 At px         
    67     1.121260  -0.000003  2 At pz               178    -0.000003   1.121256  2 At py         
   122     0.000001   1.121251  1 At py                11     1.121250   0.000001  1 At pz         
    70    -1.079431   0.000003  2 At pz               181     0.000003  -1.079427  2 At py         

 Vector  217  Occ=0.000000D+00  E= 6.883993D+02
              MO Center= -5.6D-19,  5.1D-22, -6.9D-22, r^2= 1.1D-12
  Bfn.         Coefficient        Function           Bfn.         Coefficient        Function  
  ----     -------------------  ------------         ----     -------------------  ------------
   115    -6.062715   0.000000  1 At s                171    -6.062712   0.000000  2 At s          
   114     4.364542  -0.000000  1 At s                170     4.364540  -0.000000  2 At s          
   116     2.801517  -0.000000  1 At s                172     2.801516  -0.000000  2 At s          
   117    -0.949443   0.000000  1 At s                173    -0.949443   0.000000  2 At s          
   118     0.669737  -0.000000  1 At s                174     0.669737  -0.000000  2 At s          

 Vector  218  Occ=0.000000D+00  E= 6.883993D+02
              MO Center= -6.6D-07,  1.2D-12, -1.3D-12, r^2= 2.2D+00
  Bfn.         Coefficient        Function           Bfn.         Coefficient        Function  
  ----     -------------------  ------------         ----     -------------------  ------------
     3    -6.030904   0.620247  1 At s                 59    -6.030901   0.620246  2 At s          
     2     4.341641  -0.446515  1 At s                 58     4.341639  -0.446515  2 At s          
     4     2.786818  -0.286610  1 At s                 60     2.786817  -0.286609  2 At s          
     5    -0.944461   0.097133  1 At s                 61    -0.944461   0.097133  2 At s          
     6     0.666223  -0.068518  1 At s                 62     0.666223  -0.068518  2 At s          

 Vector  219  Occ=0.000000D+00  E= 6.885926D+02
              MO Center=  3.4D-19,  7.3D-22, -3.2D-22, r^2= 2.3D-12
  Bfn.         Coefficient        Function           Bfn.         Coefficient        Function  
  ----     -------------------  ------------         ----     -------------------  ------------
   171    -6.076522   0.000000  2 At s                115     6.076519  -0.000000  1 At s          
   170     4.370179  -0.000000  2 At s                114    -4.370177   0.000000  1 At s          
   172     2.814238  -0.000000  2 At s                116    -2.814237   0.000000  1 At s          
   173    -0.969428   0.000000  2 At s                117     0.969427  -0.000000  1 At s          
   174     0.700630  -0.000000  2 At s                118    -0.700629   0.000000  1 At s          

 Vector  220  Occ=0.000000D+00  E= 6.885926D+02
              MO Center=  6.7D-07,  1.3D-12, -1.5D-12, r^2= 2.2D+00
  Bfn.         Coefficient        Function           Bfn.         Coefficient        Function  
  ----     -------------------  ------------         ----     -------------------  ------------
    59     6.076481   0.022274  2 At s                  3    -6.076478  -0.022274  1 At s          
    58    -4.370150  -0.016019  2 At s                  2     4.370148   0.016019  1 At s          
    60    -2.814219  -0.010316  2 At s                  4     2.814218   0.010316  1 At s          
    61     0.969421   0.003554  2 At s                  5    -0.969421  -0.003554  1 At s          
    62    -0.700625  -0.002568  2 At s                  6     0.700625   0.002568  1 At s          

 Vector  221  Occ=0.000000D+00  E= 1.305903D+04
              MO Center=  7.4D-22, -3.1D-26,  7.3D-26, r^2= 1.2D-16
  Bfn.         Coefficient        Function           Bfn.         Coefficient        Function  
  ----     -------------------  ------------         ----     -------------------  ------------
   171    -1.959676   0.000000  2 At s                115    -1.959663   0.000000  1 At s          
   170     1.373115  -0.000000  2 At s                114     1.373106  -0.000000  1 At s          
   172     0.933585  -0.000000  2 At s                116     0.933579  -0.000000  1 At s          
   169    -0.803033   0.000000  2 At s                113    -0.803028   0.000000  1 At s          
   173    -0.328682   0.000000  2 At s                117    -0.328680   0.000000  1 At s          

 Vector  222  Occ=0.000000D+00  E= 1.305903D+04
              MO Center=  1.0D-05,  7.2D-15, -6.7D-15, r^2= 2.2D+00
  Bfn.         Coefficient        Function           Bfn.         Coefficient        Function  
  ----     -------------------  ------------         ----     -------------------  ------------
    59     1.959601   0.017197  2 At s                  3     1.959587   0.017197  1 At s          
    58    -1.373062  -0.012050  2 At s                  2    -1.373053  -0.012050  1 At s          
    60    -0.933549  -0.008193  2 At s                  4    -0.933543  -0.008193  1 At s          
    57     0.803002   0.007047  2 At s                  1     0.802997   0.007047  1 At s          
    61     0.328670   0.002884  2 At s                  5     0.328667   0.002884  1 At s          

 Vector  223  Occ=0.000000D+00  E= 1.305948D+04
              MO Center= -1.0D-05,  7.9D-15, -8.6D-15, r^2= 2.2D+00
  Bfn.         Coefficient        Function           Bfn.         Coefficient        Function  
  ----     -------------------  ------------         ----     -------------------  ------------
     3     1.964544   0.003386  1 At s                 59    -1.964531  -0.003386  2 At s          
     2    -1.375194  -0.002370  1 At s                 58     1.375185   0.002370  2 At s          
     4    -0.938001  -0.001617  1 At s                 60     0.937995   0.001617  2 At s          
     1     0.803080   0.001384  1 At s                 57    -0.803074  -0.001384  2 At s          
     5     0.335665   0.000579  1 At s                 61    -0.335663  -0.000579  2 At s          

 Vector  224  Occ=0.000000D+00  E= 1.305948D+04
              MO Center= -7.5D-22, -4.0D-26,  9.4D-26, r^2= 2.3D-16
  Bfn.         Coefficient        Function           Bfn.         Coefficient        Function  
  ----     -------------------  ------------         ----     -------------------  ------------
   115     1.964547  -0.000000  1 At s                171    -1.964533   0.000000  2 At s          
   114    -1.375196   0.000000  1 At s                170     1.375187  -0.000000  2 At s          
   116    -0.938002   0.000000  1 At s                172     0.937996  -0.000000  2 At s          
   113     0.803081  -0.000000  1 At s                169    -0.803075   0.000000  2 At s          
   117     0.335665  -0.000000  1 At s                173    -0.335663   0.000000  2 At s          


   alpha - beta orbital overlaps 
   ----------------------------- 


   alpha      1      2      3      4      5      6      7      8      9     10
    beta      4      4      5      5      5      5      7      7     15     16
 overlap   0.001  0.181  0.838  1.582  1.713  0.655  0.877  0.392  0.095  0.103


   alpha     11     12     13     14     15     16     17     18     19     20
    beta     17     15     16     17     15     16     17     15     16     17
 overlap   0.103  0.265  0.290  0.290  0.453  0.515  0.515  0.364  0.388  0.388


   alpha     21     22     23     24     25     26     27     28     29     30
    beta     21     22     23     21     22     23     42     43     44     45
 overlap   0.202  0.371  0.371  0.132  0.316  0.316  0.001  0.001  0.001  0.001


   alpha     31     32     33     34     35     36     37     38     39     40
    beta     46     42     43     44     45     46     42     43     44     45
 overlap   0.001  0.036  0.036  0.036  0.036  0.036  0.155  0.155  0.155  0.155


   alpha     41     42     43     44     45     46     47     48     49     50
    beta     46     42     43     44     45     46     42     43     44     45
 overlap   0.155  0.269  0.269  0.269  0.269  0.270  0.151  0.151  0.151  0.151


   alpha     51     52     53     54     55     56     57     58     59     60
    beta     46     42     43     44     45     46     60     60     61     61
 overlap   0.151  0.029  0.030  0.030  0.029  0.030  0.001  0.181  0.838  1.582


   alpha     61     62     63     64     65     66     67     68     69     70
    beta     61     61     63     63     71     72     73     71     72     73
 overlap   1.713  0.655  0.877  0.392  0.095  0.103  0.103  0.265  0.290  0.290


   alpha     71     72     73     74     75     76     77     78     79     80
    beta     71     72     73     71     72     73     77     78     79     77
 overlap   0.453  0.515  0.515  0.364  0.388  0.388  0.202  0.371  0.371  0.132


   alpha     81     82     83     84     85     86     87     88     89     90
    beta     78     79     98     99    100    101    102     98     99    100
 overlap   0.316  0.316  0.001  0.001  0.001  0.001  0.001  0.036  0.036  0.036


   alpha     91     92     93     94     95     96     97     98     99    100
    beta    101    102     98     99    100    101    102     98     99    100
 overlap   0.036  0.036  0.155  0.155  0.155  0.155  0.155  0.269  0.269  0.269


   alpha    101    102    103    104    105    106    107    108    109    110
    beta    101    102     98     99    100    101    102     98     99    100
 overlap   0.269  0.270  0.151  0.151  0.151  0.151  0.151  0.029  0.030  0.030


   alpha    111    112
    beta    101    102
 overlap   0.029  0.030

     --------------------------
     Expectation value of S2:  
     --------------------------
      <S2> =      0.3590 (Exact =     0.0000)


     Multipole analysis of the density
     ---------------------------------

     L   x y z        total         alpha         beta         nuclear
     -   - - -        -----         -----         ----         -------
     0   0 0 0      0.000000    -25.000000    -25.000000     50.000000

     1   1 0 0     -0.000000     -0.000000     -0.000000      0.000000
     1   0 1 0      0.000000      0.000000      0.000000      0.000000
     1   0 0 1      0.000000      0.000000      0.000000      0.000000

     2   2 0 0    -40.694846   -217.895915   -217.895915    395.096984
     2   1 1 0     -0.000000     -0.000000     -0.000000      0.000000
     2   1 0 1      0.000001      0.000000      0.000000      0.000000
     2   0 2 0    -47.396382    -23.698191    -23.698191      0.000000
     2   0 1 1      0.000000      0.000000      0.000000      0.000000
     2   0 0 2    -47.396382    -23.698191    -23.698191      0.000000


 Parallel integral file used      63 records with       0 large values


 Task  times  cpu:       16.1s     wall:       16.9s
 Summary of allocated global arrays
-----------------------------------
  No active global arrays



                         GA Statistics for process    0
                         ------------------------------

       create   destroy   get      put      acc     scatter   gather  read&inc
calls: 1237     1237     2.88e+04 2.04e+04 4.27e+04    0        0     2102     
number of processes/call 1.00e+00 1.00e+00 1.00e+00 0.00e+00 0.00e+00
bytes total:             2.86e+08 2.23e+08 1.23e+08 0.00e+00 0.00e+00 1.68e+04
bytes remote:            0.00e+00 0.00e+00 0.00e+00 0.00e+00 0.00e+00 0.00e+00
Max memory consumed for GA by this process: 30808064 bytes
MA_summarize_allocated_blocks: starting scan ...
MA_summarize_allocated_blocks: scan completed: 0 heap blocks, 0 stack blocks
MA usage statistics:

	allocation statistics:
					      heap	     stack
					      ----	     -----
	current number of blocks	         0	         0
	maximum number of blocks	        45	        57
	current total bytes		         0	         0
	maximum total bytes		 347891880	  23336504
	maximum total K-bytes		    347892	     23337
	maximum total M-bytes		       348	        24


                                NWChem Input Module
                                -------------------





                                     CITATION
                                     --------
                Please cite the following reference when publishing
                           results obtained with NWChem:

                 M. Valiev, E.J. Bylaska, N. Govind, K. Kowalski,
              T.P. Straatsma, H.J.J. van Dam, D. Wang, J. Nieplocha,
                        E. Apra, T.L. Windus, W.A. de Jong
                 "NWChem: a comprehensive and scalable open-source
                  solution for large scale molecular simulations"
                      Comput. Phys. Commun. 181, 1477 (2010)
                           doi:10.1016/j.cpc.2010.04.018

                                      AUTHORS
                                      -------
          E. Apra, E. J. Bylaska, W. A. de Jong, N. Govind, K. Kowalski,
       T. P. Straatsma, M. Valiev, H. J. J. van Dam, D. Wang, T. L. Windus,
        J. Hammond, J. Autschbach, K. Bhaskaran-Nair, J. Brabec, K. Lopata,
    S. A. Fischer, S. Krishnamoorthy, M. Jacquelin, W. Ma, M. Klemm, O. Villa,
      Y. Chen, V. Anisimov, F. Aquino, S. Hirata, M. T. Hackler, V. Konjkov,
            D. Mejia-Rodriguez, T. Risthaus, M. Malagoli, A. Marenich,
   A. Otero-de-la-Roza, J. Mullin, P. Nichols, R. Peverati, J. Pittner, Y. Zhao,
        P.-D. Fan, A. Fonari, M. J. Williamson, R. J. Harrison, J. R. Rehr,
      M. Dupuis, D. Silverstein, D. M. A. Smith, J. Nieplocha, V. Tipparaju,
    M. Krishnan, B. E. Van Kuiken, A. Vazquez-Mayagoitia, L. Jensen, M. Swart,
      Q. Wu, T. Van Voorhis, A. A. Auer, M. Nooijen, L. D. Crosby, E. Brown,
      G. Cisneros, G. I. Fann, H. Fruchtl, J. Garza, K. Hirao, R. A. Kendall,
      J. A. Nichols, K. Tsemekhman, K. Wolinski, J. Anchell, D. E. Bernholdt,
      P. Borowski, T. Clark, D. Clerc, H. Dachsel, M. J. O. Deegan, K. Dyall,
    D. Elwood, E. Glendening, M. Gutowski, A. C. Hess, J. Jaffe, B. G. Johnson,
     J. Ju, R. Kobayashi, R. Kutteh, Z. Lin, R. Littlefield, X. Long, B. Meng,
      T. Nakajima, S. Niu, L. Pollack, M. Rosing, K. Glaesemann, G. Sandrone,
      M. Stave, H. Taylor, G. Thomas, J. H. van Lenthe, A. T. Wong, Z. Zhang.

 Total times  cpu:       16.1s     wall:       18.4s
