 argument  1 = nwchat.nw
                                         
                                         


              Northwest Computational Chemistry Package (NWChem) 6.8
              ------------------------------------------------------


                    Environmental Molecular Sciences Laboratory
                       Pacific Northwest National Laboratory
                                Richland, WA 99352

                              Copyright (c) 1994-2018
                       Pacific Northwest National Laboratory
                            Battelle Memorial Institute

             NWChem is an open-source computational chemistry package
                        distributed under the terms of the
                      Educational Community License (ECL) 2.0
             A copy of the license is included with this distribution
                              in the LICENSE.TXT file

                                  ACKNOWLEDGMENT
                                  --------------

            This software and its documentation were developed at the
            EMSL at Pacific Northwest National Laboratory, a multiprogram
            national laboratory, operated for the U.S. Department of Energy
            by Battelle under Contract Number DE-AC05-76RL01830. Support
            for this work was provided by the Department of Energy Office
            of Biological and Environmental Research, Office of Basic
            Energy Sciences, and the Office of Advanced Scientific Computing.


           Job information
           ---------------

    hostname        = r03n41.localdomain.hpc.udel.edu
    program         = nwchem
    date            = Mon Jul 20 20:40:50 2020

    compiled        = Mon_Jun_22_16:48:09_2020
    source          = /opt/shared/nwchem/6.8.1/src
    nwchem branch   = Development
    nwchem revision = N/A
    ga revision     = 5.6.5
    use scalapack   = F
    input           = nwchat.nw
    prefix          = nwchat.
    data base       = /work/akanane/users/akanane/Relativistic/GA/parallel/test/nwchat.db
    status          = startup
    nproc           =        1
    time left       =     -1s



           Memory information
           ------------------

    heap     = 1048575998 doubles =   8000.0 Mbytes
    stack    = 1048575995 doubles =   8000.0 Mbytes
    global   = 2097152000 doubles =  16000.0 Mbytes (distinct from heap & stack)
    total    = 4194303993 doubles =  32000.0 Mbytes
    verify   = yes
    hardfail = no 


           Directory information
           ---------------------

  0 permanent = /work/akanane/users/akanane/Relativistic/GA/parallel/test
  0 scratch   = /lustre/scratch/akanane/nwchem/5




                                NWChem Input Module
                                -------------------


  library name resolved from: environment
  library file name is: </opt/shared/nwchem/6.8.1/data/libraries/>
  

 **** WARNING Zero Coefficient **** on atom "               H"
 angular momentum value: 1  standard basis set name: "user specified"
 input line that generated warning:
    23:       4.516000E+00           1.000000E+00           0.000000E+00           0.000000E+00           0.000000E+00
  

 **** WARNING Zero Coefficient **** on atom "               H"
 angular momentum value: 1  standard basis set name: "user specified"
 input line that generated warning:
    23:       4.516000E+00           1.000000E+00           0.000000E+00           0.000000E+00           0.000000E+00
  

 **** WARNING Zero Coefficient **** on atom "               H"
 angular momentum value: 1  standard basis set name: "user specified"
 input line that generated warning:
    23:       4.516000E+00           1.000000E+00           0.000000E+00           0.000000E+00           0.000000E+00
  

 **** WARNING Zero Coefficient **** on atom "               H"
 angular momentum value: 1  standard basis set name: "user specified"
 input line that generated warning:
    24:       1.712000E+00           0.000000E+00           1.000000E+00           0.000000E+00           0.000000E+00
  

 **** WARNING Zero Coefficient **** on atom "               H"
 angular momentum value: 1  standard basis set name: "user specified"
 input line that generated warning:
    24:       1.712000E+00           0.000000E+00           1.000000E+00           0.000000E+00           0.000000E+00
  

 **** WARNING Zero Coefficient **** on atom "               H"
 angular momentum value: 1  standard basis set name: "user specified"
 input line that generated warning:
    24:       1.712000E+00           0.000000E+00           1.000000E+00           0.000000E+00           0.000000E+00
  

 **** WARNING Zero Coefficient **** on atom "               H"
 angular momentum value: 1  standard basis set name: "user specified"
 input line that generated warning:
    25:       6.490000E-01           0.000000E+00           0.000000E+00           1.000000E+00           0.000000E+00
  

 **** WARNING Zero Coefficient **** on atom "               H"
 angular momentum value: 1  standard basis set name: "user specified"
 input line that generated warning:
    25:       6.490000E-01           0.000000E+00           0.000000E+00           1.000000E+00           0.000000E+00
  

 **** WARNING Zero Coefficient **** on atom "               H"
 angular momentum value: 1  standard basis set name: "user specified"
 input line that generated warning:
    25:       6.490000E-01           0.000000E+00           0.000000E+00           1.000000E+00           0.000000E+00
  

 **** WARNING Zero Coefficient **** on atom "               H"
 angular momentum value: 1  standard basis set name: "user specified"
 input line that generated warning:
    26:       2.460000E-01           0.000000E+00           0.000000E+00           0.000000E+00           1.000000E+00
  

 **** WARNING Zero Coefficient **** on atom "               H"
 angular momentum value: 1  standard basis set name: "user specified"
 input line that generated warning:
    26:       2.460000E-01           0.000000E+00           0.000000E+00           0.000000E+00           1.000000E+00
  

 **** WARNING Zero Coefficient **** on atom "               H"
 angular momentum value: 1  standard basis set name: "user specified"
 input line that generated warning:
    26:       2.460000E-01           0.000000E+00           0.000000E+00           0.000000E+00           1.000000E+00
  

 **** WARNING Zero Coefficient **** on atom "               H"
 angular momentum value: 2  standard basis set name: "user specified"
 input line that generated warning:
    28:       2.950000E+00           1.000000E+00           0.000000E+00           0.000000E+00
  

 **** WARNING Zero Coefficient **** on atom "               H"
 angular momentum value: 2  standard basis set name: "user specified"
 input line that generated warning:
    28:       2.950000E+00           1.000000E+00           0.000000E+00           0.000000E+00
  

 **** WARNING Zero Coefficient **** on atom "               H"
 angular momentum value: 2  standard basis set name: "user specified"
 input line that generated warning:
    29:       1.206000E+00           0.000000E+00           1.000000E+00           0.000000E+00
  

 **** WARNING Zero Coefficient **** on atom "               H"
 angular momentum value: 2  standard basis set name: "user specified"
 input line that generated warning:
    29:       1.206000E+00           0.000000E+00           1.000000E+00           0.000000E+00
  

 **** WARNING Zero Coefficient **** on atom "               H"
 angular momentum value: 2  standard basis set name: "user specified"
 input line that generated warning:
    30:       4.930000E-01           0.000000E+00           0.000000E+00           1.000000E+00
  

 **** WARNING Zero Coefficient **** on atom "               H"
 angular momentum value: 2  standard basis set name: "user specified"
 input line that generated warning:
    30:       4.930000E-01           0.000000E+00           0.000000E+00           1.000000E+00
  

 **** WARNING Zero Coefficient **** on atom "               H"
 angular momentum value: 3  standard basis set name: "user specified"
 input line that generated warning:
    32:       2.506000E+00           1.000000E+00           0.000000E+00
  

 **** WARNING Zero Coefficient **** on atom "               H"
 angular momentum value: 3  standard basis set name: "user specified"
 input line that generated warning:
    33:       8.750000E-01           0.000000E+00           1.000000E+00
  
                      Basis "ao basis" -> "" (spherical)
                      -----
  H (Hydrogen)
  ------------
            Exponent  Coefficients 
       -------------- ---------------------------------------------------------
  1 S  4.02000000E+02  1.000000

  2 S  6.02400000E+01  1.000000

  3 S  1.37300000E+01  1.000000

  4 S  3.90500000E+00  1.000000

  5 S  1.28300000E+00  1.000000

  6 S  4.65500000E-01  1.000000

  7 S  1.81100000E-01  1.000000

  8 S  7.27900000E-02  1.000000

  9 P  4.51600000E+00  1.000000

 10 P  1.71200000E+00  1.000000

 11 P  6.49000000E-01  1.000000

 12 P  2.46000000E-01  1.000000

 13 D  2.95000000E+00  1.000000

 14 D  1.20600000E+00  1.000000

 15 D  4.93000000E-01  1.000000

 16 F  2.50600000E+00  1.000000

 17 F  8.75000000E-01  1.000000

 18 G  2.35800000E+00  1.000000

  At (Astatine)
  -------------
            Exponent  Coefficients 
       -------------- ---------------------------------------------------------
  1 S  3.03080876E+02  1.000000

  2 S  2.24085000E+01  1.000000

  3 S  1.40490000E+01  1.000000

  4 S  7.63960250E+00  1.000000

  5 S  1.89494000E+00  1.000000

  6 S  9.60058800E-01  1.000000

  7 S  3.19654600E-01  1.000000

  8 S  1.22086100E-01  1.000000

  9 P  1.19852412E+01  1.000000

 10 P  8.22689180E+00  1.000000

 11 P  2.31140820E+00  1.000000

 12 P  1.02133000E+00  1.000000

 13 P  3.03830400E-01  1.000000

 14 P  1.00110500E-01  1.000000

 15 D  2.13084000E+01  1.000000

 16 D  7.07428630E+00  1.000000

 17 D  2.76898000E+00  1.000000

 18 D  1.37314000E+00  1.000000

 19 D  6.39439100E-01  1.000000

 20 D  2.59300000E-01  1.000000



 Summary of "ao basis" -> "" (spherical)
 ------------------------------------------------------------------------------
       Tag                 Description            Shells   Functions and Types
 ---------------- ------------------------------  ------  ---------------------
 H                       user specified             18       58   8s4p3d2f1g
 At                      user specified             20       56   8s6p6d


  library name resolved from: environment
  library file name is: </opt/shared/nwchem/6.8.1/data/libraries/>
  
                 ECP       "ecp basis" -> "" (cartesian)
                -----
  At (Astatine) Replaces    60 electrons
  --------------------------------------
             Channel    R-exponent     Exponent     Coefficients
         ------------ ---------------------------------------------------------
  1 U L       Both         0.00      525.754846      -0.173059
  1 U L       Both         1.00     2395.715850      -2.276906
  1 U L       Both         1.00      278.392187      -3.857969
  1 U L       Both         1.00       61.458962     -36.770662
  1 U L       Both         1.00       44.129376      37.601009
  1 U L       Both         1.00       31.359815     -23.238699
  1 U L       Both         1.00       11.620573     -16.176532
  1 U L       Both         1.00        4.446625      -3.261971
  1 U L       Both         1.00        2.935632       0.180132
  1 U L       Both         1.00        1.910251      -0.146253
  1 U L       Both         1.00        0.178868      -0.000306
  1 U L       Both         1.00        0.018768      -0.000022
  1 U L       Both         1.00        0.009761      -0.000001

  2 U-s       Both         0.00       78.594234      10.173059
  2 U-s       Both         1.00       20.707609      53.132769
  2 U-s       Both         2.00       45.167107     915.704248
  2 U-s       Both         2.00       30.243749   -1411.543382
  2 U-s       Both         2.00       20.306371    1849.067583
  2 U-s       Both         2.00       13.560689   -1518.357864
  2 U-s       Both         2.00        8.557058    1106.328043
  2 U-s       Both         2.00        5.419636    -461.892244
  2 U-s       Both         2.00        3.516909     198.105995
  2 U-s       Both         2.00        2.287714     -81.896353
  2 U-s       Both         2.00        1.492833      32.227905
  2 U-s       Both         2.00        0.974359     -11.458592
  2 U-s       Both         2.00        0.633560       3.370887
  2 U-s       Both         2.00        0.410317      -0.726005
  2 U-s       Both         2.00        0.263860       0.084087

  3 U-p       Both         0.00       77.044856       9.173059
  3 U-p       Both         1.00      208.029432     -11.921411
  3 U-p       Both         1.00       28.036479      67.690912
  3 U-p       Both         2.00       39.868030     362.644345
  3 U-p       Both         2.00       26.002305    -582.208229
  3 U-p       Both         2.00       15.965542    1135.430155
  3 U-p       Both         2.00       11.089072   -1255.187511
  3 U-p       Both         2.00        8.084023     873.528658
  3 U-p       Both         2.00        5.150690    -147.543640
  3 U-p       Both         2.00        2.818771      20.737280
  3 U-p       Both         2.00        1.590819      -4.949674
  3 U-p       Both         2.00        0.878982       1.224799
  3 U-p       Both         2.00        0.479414      -0.318322
  3 U-p       Both         2.00        0.264399       0.075196
  3 U-p       Both         2.00        0.157424      -0.011770

  4 U-d       Both         0.00       30.117728       7.173059
  4 U-d       Both         1.00        9.540744     223.203571
  4 U-d       Both         1.00        5.932081    -532.676982
  4 U-d       Both         1.00        3.279986     364.117347
  4 U-d       Both         2.00        6.384402     470.098427
  4 U-d       Both         2.00        3.591978    -476.290215
  4 U-d       Both         2.00        1.790367       1.447964
  4 U-d       Both         2.00        0.921766      -0.463077
  4 U-d       Both         2.00        0.485962       0.163733
  4 U-d       Both         2.00        0.266420      -0.069600
  4 U-d       Both         2.00        0.150370       0.031881
  4 U-d       Both         2.00        0.090090      -0.013071
  4 U-d       Both         2.00        0.051240       0.003831
  4 U-d       Both         2.00        0.029281      -0.000895
  4 U-d       Both         2.00        0.016722       0.000119

  5 U-f       Both         0.00        0.891112       4.173059
  5 U-f       Both         1.00       18.356496      62.551914
  5 U-f       Both         2.00    32873.554569    1035.415119
  5 U-f       Both         2.00     3063.446789     192.725071
  5 U-f       Both         2.00       31.894642    -183.984679
  5 U-f       Both         2.00        4.214026      69.570454
  5 U-f       Both         2.00        1.887936    -131.986631
  5 U-f       Both         2.00        1.332761     223.444177
  5 U-f       Both         2.00        0.873304    -167.865396
  5 U-f       Both         2.00        0.632167      71.630825
  5 U-f       Both         2.00        0.438045     -11.215886
  5 U-f       Both         2.00        0.261926       0.470906
  5 U-f       Both         2.00        0.174510       0.000847

  library name resolved from: environment
  library file name is: </opt/shared/nwchem/6.8.1/data/libraries/>
  

 **** WARNING Zero Coefficient **** on atom "              At"
 angular momentum value: 1  standard basis set name: "user specified"
 input line that generated warning:
   160: 0	7.704485637704510E+01		0.000000000000000E+00
  

 **** WARNING Zero Coefficient **** on atom "              At"
 angular momentum value: 2  standard basis set name: "user specified"
 input line that generated warning:
   176: 0	3.011772828438610E+01		0.000000000000000E+00
  

 **** WARNING Zero Coefficient **** on atom "              At"
 angular momentum value: 3  standard basis set name: "user specified"
 input line that generated warning:
   192: 0	8.911119625038520E-01		0.000000000000000E+00
  

 **** WARNING Zero Coefficient **** on atom "              At"
 angular momentum value: 4  standard basis set name: "user specified"
 input line that generated warning:
   206: 0	5.257548462769590E+02		0.000000000000000E+00
  
             SO Potential "so potential" -> ""
                      -----
  At (Astatine)
  -------------
          R-exponent    Exponent     Coefficients 
         ------------ ------------------------------------------------------------
  1 U-p      1.00      208.029432       2.561177
  1 U-p      1.00       28.036479      -1.650544
  1 U-p      2.00       39.868030      77.307362
  1 U-p      2.00       26.002305    -118.585980
  1 U-p      2.00       15.965542     138.579485
  1 U-p      2.00       11.089072     -52.715330
  1 U-p      2.00        8.084023     -58.916702
  1 U-p      2.00        5.150690      62.873440
  1 U-p      2.00        2.818771     -15.889430
  1 U-p      2.00        1.590819       4.843922
  1 U-p      2.00        0.878982      -1.405982
  1 U-p      2.00        0.479414       0.390801
  1 U-p      2.00        0.264399      -0.095951
  1 U-p      2.00        0.157424       0.015456

  2 U-d      1.00        9.540744       1.612834
  2 U-d      1.00        5.932081      -1.350383
  2 U-d      1.00        3.279986      -0.287663
  2 U-d      2.00        6.384402      -1.664264
  2 U-d      2.00        3.591978       4.036069
  2 U-d      2.00        1.790367      -0.890782
  2 U-d      2.00        0.921766       0.301059
  2 U-d      2.00        0.485962      -0.123316
  2 U-d      2.00        0.266420       0.057045
  2 U-d      2.00        0.150370      -0.027051
  2 U-d      2.00        0.090090       0.011366
  2 U-d      2.00        0.051240      -0.003367
  2 U-d      2.00        0.029281       0.000795
  2 U-d      2.00        0.016722      -0.000104

  3 U-f      1.00       18.356496      -0.000643
  3 U-f      2.00    32873.554569       0.834481
  3 U-f      2.00     3063.446789       0.273486
  3 U-f      2.00       31.894642       0.160633
  3 U-f      2.00        4.214026      -0.068824
  3 U-f      2.00        1.887936       0.022494
  3 U-f      2.00        1.332761      -0.174753
  3 U-f      2.00        0.873304       0.160803
  3 U-f      2.00        0.632167       0.036072
  3 U-f      2.00        0.438045      -0.065269
  3 U-f      2.00        0.261926       0.016437
  3 U-f      2.00        0.174510      -0.002626

  4 U-g      1.00     2395.715850      -1.527919
  4 U-g      1.00      278.392187      -3.033005
  4 U-g      1.00       61.458962       2.574144
  4 U-g      1.00       44.129376      -2.630667
  4 U-g      1.00       31.359815       1.110494
  4 U-g      1.00       11.620573      -0.051219
  4 U-g      1.00        4.446625       0.042132
  4 U-g      1.00        2.935632      -0.036158
  4 U-g      1.00        1.910251       0.008870
  4 U-g      1.00        0.178868       0.000099
  4 U-g      1.00        0.018768       0.000004
  4 U-g      1.00        0.009761      -0.000000

                                        HAt
                                        ---

 Scaling coordinates for geometry "geometry" by  1.889725989
 (inverse scale =  0.529177249)

 Turning off AUTOSYM since
 SYMMETRY directive was detected!


          ------
          auto-z
          ------
  no constraints, skipping    0.0000000000000000     
  no constraints, skipping    0.0000000000000000     


                             Geometry "geometry" -> ""
                             -------------------------

 Output coordinates in angstroms (scale by  1.889725989 to convert to a.u.)

  No.       Tag          Charge          X              Y              Z
 ---- ---------------- ---------- -------------- -------------- --------------
    1 H                    1.0000    -1.68969906     0.00000000     0.00000000
    2 At                  85.0000     0.01987881     0.00000000     0.00000000

      Atomic Mass 
      ----------- 

      H                  1.007825
      At               210.987500


 Effective nuclear repulsion energy (a.u.)      26.3106272924

            Nuclear Dipole moment (a.u.) 
            ----------------------------
        X                 Y               Z
 ---------------- ---------------- ----------------
     0.0000000000     0.0000000000     0.0000000000



                                Z-matrix (autoz)
                                -------- 

 Units are Angstrom for bonds and degrees for angles

      Type          Name      I     J     K     L     M      Value
      ----------- --------  ----- ----- ----- ----- ----- ----------
    1 Stretch                  1     2                       1.70958


            XYZ format geometry
            -------------------
     2
 geometry
 H                    -1.68969906     0.00000000     0.00000000
 At                    0.01987881     0.00000000     0.00000000

 ==============================================================================
                                internuclear distances
 ------------------------------------------------------------------------------
       center one      |      center two      | atomic units |  angstroms
 ------------------------------------------------------------------------------
    2 At               |   1 H                |     3.23063  |     1.70958
 ------------------------------------------------------------------------------
                         number of included internuclear distances:          1
 ==============================================================================




                                 NWChem DFT Module
                                 -----------------


                                        HAt




 Summary of "ao basis" -> "ao basis" (spherical)
 ------------------------------------------------------------------------------
       Tag                 Description            Shells   Functions and Types
 ---------------- ------------------------------  ------  ---------------------
 H                       user specified             18       58   8s4p3d2f1g
 At                      user specified             20       56   8s6p6d


  Caching 1-el integrals 

            General Information
            -------------------
          SCF calculation type: DFT
          Wavefunction type:  spin polarized.
          No. of atoms     :     2
          No. of electrons :    26
           Alpha electrons :    13
            Beta electrons :    13
          Charge           :     0
          Spin multiplicity:     1
          Use of symmetry is: off; symmetry adaption is: off
          Maximum number of iterations: 100
          AO basis - number of functions:   114
                     number of shells:    38
          Convergence on energy requested:  1.00D-06
          Convergence on density requested:  5.00D-06
          Convergence on gradient requested:  5.00D-06

              XC Information
              --------------
                         PBE0 Method XC Functional
                     Hartree-Fock (Exact) Exchange  0.250          
          PerdewBurkeErnzerhof Exchange Functional  0.750          
            Perdew 1991 LDA Correlation Functional  1.000 local    
           PerdewBurkeErnz. Correlation Functional  1.000 non-local

             Grid Information
             ----------------
          Grid used for XC integration:  xfine     
          Radial quadrature: Mura-Knowles        
          Angular quadrature: Lebedev. 
          Tag              B.-S. Rad. Rad. Pts. Rad. Cut. Ang. Pts.
          ---              ---------- --------- --------- ---------
          H                   0.35      100           8.0      1202
          At                  1.90      205           9.0      1454
          Grid pruning is: on 
          Number of quadrature shells:   305
          Spatial weights used:  Erf1

          Convergence Information
          -----------------------
          Convergence aids based upon iterative change in 
          total energy or number of iterations. 
          Levelshifting, if invoked, occurs when the 
          HOMO/LUMO gap drops below (HL_TOL):  1.00D-02
          DIIS, if invoked, will attempt to extrapolate 
          using up to (NFOCK): 10 stored Fock matrices.

                    Damping( 0%)  Levelshifting(0.5)       DIIS
                  --------------- ------------------- ---------------
          dE  on:    start            ASAP                start   
          dE off:    2 iters        100 iters           100 iters 


      Screening Tolerance Information
      -------------------------------
          Density screening/tol_rho:  1.00D-10
          AO Gaussian exp screening on grid/accAOfunc:  14
          CD Gaussian exp screening on grid/accCDfunc:  20
          XC Gaussian exp screening on grid/accXCfunc:  20
          Schwarz screening/accCoul:  1.00D-10

 Performing spin-orbit DFT (SO-DFT) calculations
 -----------------------------------------------


      Superposition of Atomic Density Guess
      -------------------------------------

 Sum of atomic energies:        -303.52205174

      Non-variational initial energy
      ------------------------------

 Total energy =    -262.020973
 1-e energy   =    -470.160891
 2-e energy   =     200.401498
 HOMO         =      -0.328936
 LUMO         =       0.015058

   Time prior to 1st pass:      0.9

 Integral file          = /lustre/scratch/akanane/nwchem/5/nwchat.aoints.0
 Record size in doubles =    65536    No. of integs per rec  =    43688
 Max. records in memory =      669    Max. records in file   = ********
 No. of bits per label  =        8    No. of bits per value  =       64


 #quartets = 2.407D+05 #integrals = 4.696D+06 #direct =  0.0% #cached =100.0%


 Grid_pts file          = /lustre/scratch/akanane/nwchem/5/nwchat.gridpts.0
 Record size in doubles =  12289        No. of grid_pts per rec  =   3070
 Max. records in memory =    160        Max. recs in file   = 807643578

 Grid integrated density:          25.999998272550
 Requested integration accuracy:   0.10E-07

           Memory utilization after 1st SCF pass: 
           Heap Space remaining (MW):     1002.73          1002733398
          Stack Space remaining (MW):     1048.47          1048468884

   convergence    iter        energy       DeltaE   RMS-Dens  Diis-err    time
 ---------------- ----- ----------------- --------- --------- ---------  ------
 d= 0,ls=0.0,diis     1   -263.2447870281 -2.71D+02  4.10D-03  6.22D+00     3.7
                                                     4.10D-03  6.22D+00
 Grid integrated density:          25.999998208285
 Requested integration accuracy:   0.10E-07
 d= 0,ls=0.0,diis     2   -263.5563918421 -3.12D-01  2.07D-03  3.66D-02     5.5
                                                     2.07D-03  3.66D-02
 Grid integrated density:          25.999998233604
 Requested integration accuracy:   0.10E-07
 d= 0,ls=0.0,diis     3   -263.5552612892  1.13D-03  1.18D-03  3.75D-02     7.2
                                                     1.18D-03  3.75D-02
 Grid integrated density:          25.999998216073
 Requested integration accuracy:   0.10E-07
 d= 0,ls=0.0,diis     4   -263.5686002406 -1.33D-02  1.10D-04  2.13D-04     8.9
                                                     1.10D-04  2.13D-04
 Grid integrated density:          25.999998216049
 Requested integration accuracy:   0.10E-07
 d= 0,ls=0.0,diis     5   -263.5686362542 -3.60D-05  2.67D-05  3.15D-05    10.5
                                                     2.67D-05  3.15D-05
 Grid integrated density:          25.999998216124
 Requested integration accuracy:   0.10E-07
 d= 0,ls=0.0,diis     6   -263.5686415141 -5.26D-06  4.85D-06  3.56D-07    12.0
                                                     4.85D-06  3.56D-07
 Grid integrated density:          25.999998216101
 Requested integration accuracy:   0.10E-07
 d= 0,ls=0.0,diis     7   -263.5686417374 -2.23D-07  9.48D-07  9.06D-09    13.5
                                                     9.48D-07  9.06D-09
 Grid integrated density:          25.999998216113
 Requested integration accuracy:   0.10E-07


      Total SO-DFT energy =     -263.568641744053
      One electron energy =     -471.200047187887
           Coulomb energy =      219.635751277710
    Exchange-Corr. energy =      -19.742765625770
 Nuclear repulsion energy =        7.738419791894

 Numeric. integr. density =       25.999998216113

     Total iterative time =     14.0s



                       DFT Final Molecular Orbital Analysis
                       ------------------------------------

 Vector    1  Occ=1.000000D+00  E=-7.170167D+00
              MO Center=  5.9D-09, -3.0D-11, -1.2D-07, r^2= 1.1D-07
  Bfn.         Coefficient        Function           Bfn.         Coefficient        Function  
  ----     -------------------  ------------         ----     -------------------  ------------
   176    -1.109665   0.000000  2 At s                177     0.999688  -0.000000  2 At s          
   175     0.613264  -0.000000  2 At s                178     0.417435  -0.000000  2 At s          
   174    -0.136875   0.000000  2 At s          

 Vector    2  Occ=1.000000D+00  E=-7.170167D+00
              MO Center=  1.6D-02, -7.3D-05,  1.2D-07, r^2= 1.7D-01
  Bfn.         Coefficient        Function           Bfn.         Coefficient        Function  
  ----     -------------------  ------------         ----     -------------------  ------------
    62     1.027234   0.419698  2 At s                 63    -0.925427  -0.378102  2 At s          
    61    -0.567708  -0.231949  2 At s                 64    -0.386426  -0.157882  2 At s          
    60     0.126707   0.051769  2 At s          

 Vector    3  Occ=1.000000D+00  E=-5.343679D+00
              MO Center=  6.4D-03,  2.6D-11, -6.1D-08, r^2= 7.5D-02
  Bfn.         Coefficient        Function           Bfn.         Coefficient        Function  
  ----     -------------------  ------------         ----     -------------------  ------------
   187     0.477956   0.000000  2 At px               188    -0.000000   0.474760  2 At py         
    75     0.474760   0.000000  2 At pz               184    -0.212444  -0.000000  2 At px         
   185     0.000000  -0.209888  2 At py                72    -0.209888  -0.000000  2 At pz         
   190     0.205791   0.000000  2 At px               191    -0.000000   0.201386  2 At py         
    78     0.201386   0.000000  2 At pz               181     0.062192   0.000000  2 At px         

 Vector    4  Occ=1.000000D+00  E=-5.343679D+00
              MO Center=  6.9D-03,  1.6D-04,  6.1D-08, r^2= 7.7D-02
  Bfn.         Coefficient        Function           Bfn.         Coefficient        Function  
  ----     -------------------  ------------         ----     -------------------  ------------
    73    -0.438280  -0.190664  2 At px                74    -0.189389   0.435349  2 At py         
   189     0.435349   0.189389  2 At pz                70     0.194808   0.084747  2 At px         
    71     0.083728  -0.192465  2 At py               186    -0.192465  -0.083728  2 At pz         
    76    -0.188708  -0.082093  2 At px                77    -0.080336   0.184669  2 At py         
   192     0.184669   0.080336  2 At pz                67    -0.057030  -0.024809  2 At px         

 Vector    5  Occ=1.000000D+00  E=-4.225137D+00
              MO Center=  3.2D-03,  2.8D-12,  5.9D-08, r^2= 4.6D-02
  Bfn.         Coefficient        Function           Bfn.         Coefficient        Function  
  ----     -------------------  ------------         ----     -------------------  ------------
   190    -0.509319   0.000000  2 At px               187    -0.440998   0.000000  2 At px         
   184     0.321625  -0.000000  2 At px               191     0.000000   0.252556  2 At py         
    78     0.252556  -0.000000  2 At pz               188     0.000000   0.226883  2 At py         
    75     0.226883  -0.000000  2 At pz               185    -0.000000  -0.163245  2 At py         
    72    -0.163245   0.000000  2 At pz               181    -0.126372   0.000000  2 At px         

 Vector    6  Occ=1.000000D+00  E=-4.225137D+00
              MO Center=  1.1D-02, -4.8D-05, -6.0D-08, r^2= 1.6D-01
  Bfn.         Coefficient        Function           Bfn.         Coefficient        Function  
  ----     -------------------  ------------         ----     -------------------  ------------
    76     0.467200   0.202806  2 At px                73     0.404528   0.175601  2 At px         
    70    -0.295027  -0.128068  2 At px                77    -0.100565   0.231670  2 At py         
   192     0.231670   0.100565  2 At pz                74    -0.090343   0.208121  2 At py         
   189     0.208121   0.090343  2 At pz                71     0.065003  -0.149745  2 At py         
   186    -0.149745  -0.065003  2 At pz                67     0.115922   0.050320  2 At px         

 Vector    7  Occ=1.000000D+00  E=-4.215986D+00
              MO Center=  6.7D-03, -7.0D-06, -6.0D-08, r^2= 9.8D-02
  Bfn.         Coefficient        Function           Bfn.         Coefficient        Function  
  ----     -------------------  ------------         ----     -------------------  ------------
   192     0.233783  -0.368034  2 At pz                77    -0.368034  -0.233784  2 At py         
   189     0.208082  -0.327574  2 At pz                74    -0.327574  -0.208082  2 At py         
   186    -0.150555   0.237011  2 At pz                71     0.237011   0.150555  2 At py         
   183     0.059124  -0.093076  2 At pz                68    -0.093076  -0.059124  2 At py         

 Vector    8  Occ=1.000000D+00  E=-4.215986D+00
              MO Center=  9.4D-03, -1.5D-09,  5.8D-08, r^2= 1.4D-01
  Bfn.         Coefficient        Function           Bfn.         Coefficient        Function  
  ----     -------------------  ------------         ----     -------------------  ------------
    78    -0.436009  -0.000033  2 At pz               191    -0.000033   0.436009  2 At py         
    75    -0.388076  -0.000029  2 At pz               188    -0.000029   0.388076  2 At py         
    72     0.280787   0.000021  2 At pz               185     0.000021  -0.280787  2 At py         
    69    -0.110267  -0.000008  2 At pz               182    -0.000008   0.110267  2 At py         

 Vector    9  Occ=1.000000D+00  E=-1.640259D+00
              MO Center=  5.7D-03,  8.6D-06, -3.7D-05, r^2= 1.2D-01
  Bfn.         Coefficient        Function           Bfn.         Coefficient        Function  
  ----     -------------------  ------------         ----     -------------------  ------------
   218     0.261668  -0.000000  2 At d  2             103    -0.249638   0.000000  2 At d  1       
   214     0.000000   0.249638  2 At d -2             213     0.167775   0.000000  2 At d  2       
    98    -0.162430   0.000000  2 At d  1             209     0.000000   0.162430  2 At d -2       
   216    -0.151074   0.000000  2 At d  0             223     0.142006   0.000000  2 At d  2       
   108    -0.137190   0.000000  2 At d  1             219     0.000000   0.137190  2 At d -2       

 Vector   10  Occ=1.000000D+00  E=-1.640259D+00
              MO Center=  6.1D-03,  4.4D-05,  3.7D-05, r^2= 1.5D-01
  Bfn.         Coefficient        Function           Bfn.         Coefficient        Function  
  ----     -------------------  ------------         ----     -------------------  ------------
   104     0.223650  -0.135832  2 At d  2             217     0.213369  -0.129588  2 At d  1       
   100    -0.129588  -0.213368  2 At d -2              99     0.143399  -0.087092  2 At d  2       
   212     0.138831  -0.084318  2 At d  1              95    -0.084318  -0.138831  2 At d -2       
   102    -0.129125   0.078423  2 At d  0             109     0.121374  -0.073716  2 At d  2       
   222     0.117258  -0.071216  2 At d  1             105    -0.071216  -0.117258  2 At d -2       

 Vector   11  Occ=1.000000D+00  E=-1.628322D+00
              MO Center=  2.7D-03, -5.2D-05, -2.7D-07, r^2= 5.4D-02
  Bfn.         Coefficient        Function           Bfn.         Coefficient        Function  
  ----     -------------------  ------------         ----     -------------------  ------------
   215     0.302802  -0.087528  2 At d -1             102    -0.075800  -0.262232  2 At d  0       
   210     0.197756  -0.057163  2 At d -1              97    -0.049504  -0.171261  2 At d  0       
   220     0.166207  -0.048044  2 At d -1             217     0.047939   0.165844  2 At d  1       
   100    -0.165844   0.047939  2 At d -2             104    -0.043764  -0.151400  2 At d  2       
   107    -0.041607  -0.143939  2 At d  0             212     0.030692   0.106178  2 At d  1       

 Vector   12  Occ=1.000000D+00  E=-1.628322D+00
              MO Center=  2.3D-03, -1.5D-09,  2.7D-07, r^2= 4.6D-02
  Bfn.         Coefficient        Function           Bfn.         Coefficient        Function  
  ----     -------------------  ------------         ----     -------------------  ------------
   101    -0.000000  -0.315199  2 At d -1             216    -0.272968   0.000000  2 At d  0       
    96    -0.000000  -0.205852  2 At d -1             211    -0.178272   0.000000  2 At d  0       
   106    -0.000000  -0.173012  2 At d -1             103    -0.172634   0.000000  2 At d  1       
   214    -0.000000  -0.172634  2 At d -2             218    -0.157598   0.000000  2 At d  2       
   221    -0.149831   0.000000  2 At d  0              98    -0.110525   0.000000  2 At d  1       

 Vector   13  Occ=1.000000D+00  E=-1.497522D+00
              MO Center=  5.6D-03,  1.2D-04, -2.6D-07, r^2= 1.5D-01
  Bfn.         Coefficient        Function           Bfn.         Coefficient        Function  
  ----     -------------------  ------------         ----     -------------------  ------------
   104    -0.209970  -0.277588  2 At d  2             100     0.192607  -0.145689  2 At d -2       
   217     0.145690   0.192607  2 At d  1             102     0.121226   0.160266  2 At d  0       
   109    -0.116567  -0.154106  2 At d  2              99    -0.108549  -0.143506  2 At d  2       
   105     0.109079  -0.082508  2 At d -2             222     0.082508   0.109079  2 At d  1       
    95     0.101771  -0.076980  2 At d -2             212     0.076980   0.101771  2 At d  1       

 Vector   14  Occ=1.000000D+00  E=-1.497522D+00
              MO Center=  4.2D-03,  2.8D-10,  2.6D-07, r^2= 8.9D-02
  Bfn.         Coefficient        Function           Bfn.         Coefficient        Function  
  ----     -------------------  ------------         ----     -------------------  ------------
   218    -0.348056  -0.000000  2 At d  2             214     0.000000   0.241501  2 At d -2       
   103    -0.241501  -0.000000  2 At d  1             216     0.200950   0.000000  2 At d  0       
   223    -0.193226  -0.000000  2 At d  2             213    -0.179936   0.000000  2 At d  2       
   219     0.000000   0.136769  2 At d -2             108    -0.136769  -0.000000  2 At d  1       
   209     0.000000   0.127606  2 At d -2              98    -0.127606  -0.000000  2 At d  1       

 Vector   15  Occ=1.000000D+00  E=-1.490879D+00
              MO Center=  7.6D-03, -7.4D-10, -3.6D-07, r^2= 1.6D-01
  Bfn.         Coefficient        Function           Bfn.         Coefficient        Function  
  ----     -------------------  ------------         ----     -------------------  ------------
   103    -0.327080  -0.000001  2 At d  1             214     0.000001  -0.327080  2 At d -2       
   108    -0.185515  -0.000001  2 At d  1             219     0.000000  -0.185515  2 At d -2       
   101    -0.000001   0.177893  2 At d -1              98    -0.170991  -0.000000  2 At d  1       
   209     0.000000  -0.170991  2 At d -2             216     0.154042   0.000000  2 At d  0       
   106    -0.000000   0.100617  2 At d -1              96    -0.000000   0.095291  2 At d -1       

 Vector   16  Occ=1.000000D+00  E=-1.490879D+00
              MO Center=  2.4D-03, -2.8D-05,  3.6D-07, r^2= 5.2D-02
  Bfn.         Coefficient        Function           Bfn.         Coefficient        Function  
  ----     -------------------  ------------         ----     -------------------  ------------
   217    -0.322154   0.056553  2 At d  1             100    -0.056553  -0.322154  2 At d -2       
   222    -0.182721   0.032076  2 At d  1             105    -0.032076  -0.182721  2 At d -2       
   215    -0.030758  -0.175214  2 At d -1             212    -0.168416   0.029565  2 At d  1       
    95    -0.029565  -0.168416  2 At d -2             102    -0.151722   0.026634  2 At d  0       
   220    -0.017397  -0.099102  2 At d -1             210    -0.016476  -0.093856  2 At d -1       

 Vector   17  Occ=1.000000D+00  E=-1.481227D+00
              MO Center=  3.7D-03,  5.8D-09,  4.8D-10, r^2= 7.9D-02
  Bfn.         Coefficient        Function           Bfn.         Coefficient        Function  
  ----     -------------------  ------------         ----     -------------------  ------------
   215    -0.294366  -0.227626  2 At d -1             102     0.197136  -0.254936  2 At d  0       
   220    -0.166858  -0.129027  2 At d -1             210    -0.155258  -0.120057  2 At d -1       
   104     0.113817  -0.147188  2 At d  2             107     0.111744  -0.144508  2 At d  0       
    97     0.103977  -0.134462  2 At d  0             109     0.064516  -0.083432  2 At d  2       
    99     0.060031  -0.077632  2 At d  2             205     0.037929   0.029330  2 At d -1       

 Vector   18  Occ=1.000000D+00  E=-1.481227D+00
              MO Center=  4.6D-09, -2.8D-14,  7.9D-12, r^2= 9.8D-08
  Bfn.         Coefficient        Function           Bfn.         Coefficient        Function  
  ----     -------------------  ------------         ----     -------------------  ------------
   101     0.000000  -0.372109  2 At d -1             216     0.322266  -0.000000  2 At d  0       
   106     0.000000  -0.210926  2 At d -1              96     0.000000  -0.196262  2 At d -1       
   218     0.186060  -0.000000  2 At d  2             221     0.182673  -0.000000  2 At d  0       
   211     0.169974  -0.000000  2 At d  0             223     0.105466  -0.000000  2 At d  2       
   213     0.098135  -0.000000  2 At d  2              91    -0.000000   0.047946  2 At d -1       

 Vector   19  Occ=1.000000D+00  E=-7.827037D-01
              MO Center= -1.0D-02,  2.2D-03,  2.5D-06, r^2= 1.1D-01
  Bfn.         Coefficient        Function           Bfn.         Coefficient        Function  
  ----     -------------------  ------------         ----     -------------------  ------------
    65     0.266494  -0.858263  2 At s                 63    -0.241815   0.778783  2 At s          
    62     0.160341  -0.516389  2 At s                 66     0.112682  -0.362899  2 At s          
    64    -0.080620   0.259642  2 At s                 61    -0.076409   0.246080  2 At s          
     6     0.019843  -0.063905  1 H  s                 60     0.014889  -0.047951  2 At s          
     7     0.013088  -0.042151  1 H  s                  5     0.007824  -0.025197  1 H  s          

 Vector   20  Occ=1.000000D+00  E=-7.827037D-01
              MO Center= -1.2D-05,  2.6D-09, -2.5D-06, r^2= 5.5D-05
  Bfn.         Coefficient        Function           Bfn.         Coefficient        Function  
  ----     -------------------  ------------         ----     -------------------  ------------
   179     0.898685  -0.000000  2 At s                177    -0.815461   0.000000  2 At s          
   176     0.540709  -0.000000  2 At s                180     0.379991  -0.000000  2 At s          
   178    -0.271870   0.000000  2 At s                175    -0.257670   0.000000  2 At s          
   120     0.066915  -0.000000  1 H  s                174     0.050210  -0.000000  2 At s          
   121     0.044136  -0.000000  1 H  s                119     0.026384  -0.000000  1 H  s          

 Vector   21  Occ=1.000000D+00  E=-4.220017D-01
              MO Center= -3.3D-01,  2.2D-02,  4.0D-05, r^2= 1.5D+00
  Bfn.         Coefficient        Function           Bfn.         Coefficient        Function  
  ----     -------------------  ------------         ----     -------------------  ------------
    79     0.366400   0.203887  2 At px                73    -0.249598  -0.138891  2 At px         
     7    -0.248859  -0.138480  1 H  s                 66     0.202915   0.112914  2 At s          
   195    -0.183567  -0.102148  2 At pz                80     0.102148  -0.183567  2 At py         
    65     0.176285   0.098096  2 At s                 82     0.167848   0.093401  2 At px         
     6    -0.164505  -0.091540  1 H  s                 63    -0.140989  -0.078455  2 At s          

 Vector   22  Occ=1.000000D+00  E=-4.220017D-01
              MO Center=  8.6D-05,  1.7D-08, -4.0D-05, r^2= 1.2D-01
  Bfn.         Coefficient        Function           Bfn.         Coefficient        Function  
  ----     -------------------  ------------         ----     -------------------  ------------
   193     0.419307   0.000000  2 At px               187    -0.285639  -0.000000  2 At px         
   121    -0.284794  -0.000000  1 H  s                180     0.232216   0.000000  2 At s          
    81     0.210074   0.000000  2 At pz               194    -0.000000   0.210074  2 At py         
   179     0.201741   0.000000  2 At s                196     0.192085   0.000000  2 At px         
   120    -0.188259  -0.000000  1 H  s                177    -0.161348   0.000000  2 At s          

 Vector   23  Occ=1.000000D+00  E=-3.036194D-01
              MO Center= -8.3D-02,  2.4D-02,  3.3D-05, r^2= 7.5D-01
  Bfn.         Coefficient        Function           Bfn.         Coefficient        Function  
  ----     -------------------  ------------         ----     -------------------  ------------
   195     0.255122  -0.341744  2 At pz                80     0.341744   0.255122  2 At py         
   198     0.183749  -0.246137  2 At pz                83     0.246137   0.183749  2 At py         
   189    -0.146776   0.196611  2 At pz                74    -0.196611  -0.146776  2 At py         
     7    -0.130356   0.174616  1 H  s                 66     0.102244  -0.136959  2 At s          
     6    -0.071791   0.096167  1 H  s                 76    -0.070845   0.094899  2 At px         

 Vector   24  Occ=1.000000D+00  E=-3.036194D-01
              MO Center=  3.5D-04,  3.0D-08, -3.4D-05, r^2= 8.4D-01
  Bfn.         Coefficient        Function           Bfn.         Coefficient        Function  
  ----     -------------------  ------------         ----     -------------------  ------------
    81    -0.426470   0.000000  2 At pz               194    -0.000000  -0.426470  2 At py         
    84    -0.307160   0.000000  2 At pz               197    -0.000000  -0.307160  2 At py         
    75     0.245354  -0.000000  2 At pz               188     0.000000   0.245354  2 At py         
   121    -0.217907   0.000000  1 H  s                180     0.170914  -0.000000  2 At s          
   120    -0.120008   0.000000  1 H  s                190    -0.118426  -0.000000  2 At px         

 Vector   25  Occ=1.000000D+00  E=-2.406725D-01
              MO Center= -4.4D-03, -1.3D-08,  1.6D-06, r^2= 1.2D+00
  Bfn.         Coefficient        Function           Bfn.         Coefficient        Function  
  ----     -------------------  ------------         ----     -------------------  ------------
   197    -0.000007   0.424227  2 At py                84    -0.424227  -0.000007  2 At pz         
   194    -0.000007   0.396943  2 At py                81    -0.396943  -0.000007  2 At pz         
   188     0.000003  -0.194356  2 At py                75     0.194356   0.000003  2 At pz         
   191     0.000003  -0.170093  2 At py                78     0.170093   0.000003  2 At pz         
   185    -0.000002   0.102483  2 At py                72    -0.102483  -0.000002  2 At pz         

 Vector   26  Occ=1.000000D+00  E=-2.406725D-01
              MO Center= -2.5D-03, -2.1D-04, -1.6D-06, r^2= 6.9D-01
  Bfn.         Coefficient        Function           Bfn.         Coefficient        Function  
  ----     -------------------  ------------         ----     -------------------  ------------
    83    -0.322262  -0.275892  2 At py               198     0.275892  -0.322262  2 At pz         
    80    -0.301536  -0.258148  2 At py               195     0.258148  -0.301536  2 At pz         
    74     0.147642   0.126398  2 At py               189    -0.126398   0.147642  2 At pz         
    77     0.129210   0.110618  2 At py               192    -0.110618   0.129210  2 At pz         
    71    -0.077851  -0.066649  2 At py               186     0.066649  -0.077851  2 At pz         

 Vector   27  Occ=0.000000D+00  E=-3.412300D-02
              MO Center= -1.1D-03,  2.3D-08,  3.7D-05, r^2= 5.1D-02
  Bfn.         Coefficient        Function           Bfn.         Coefficient        Function  
  ----     -------------------  ------------         ----     -------------------  ------------
   196    -0.993710  -0.000000  2 At px               122    -0.833327   0.000000  1 H  s          
   180     0.698216   0.000000  2 At s                121    -0.634927  -0.000000  1 H  s          
   193    -0.437539  -0.000000  2 At px               179     0.260382   0.000000  2 At s          
   177    -0.236596   0.000000  2 At s                187     0.194463  -0.000000  2 At px         
   132    -0.170825  -0.000000  1 H  px               120    -0.162134   0.000000  1 H  s          

 Vector   28  Occ=0.000000D+00  E=-3.412300D-02
              MO Center= -4.9D-01,  1.5D-02, -3.7D-05, r^2= 3.2D+00
  Bfn.         Coefficient        Function           Bfn.         Coefficient        Function  
  ----     -------------------  ------------         ----     -------------------  ------------
    82    -0.860945   0.496219  2 At px                 8    -0.721990   0.416130  1 H  s          
    66     0.604931  -0.348661  2 At s                  7    -0.550097   0.317057  1 H  s          
    79    -0.379082   0.218489  2 At px                65     0.225594  -0.130024  2 At s          
    63    -0.204986   0.118147  2 At s                 73     0.168481  -0.097107  2 At px         
    18    -0.148002   0.085303  1 H  px                 6    -0.140472   0.080963  1 H  s          

 Vector   29  Occ=0.000000D+00  E= 9.246895D-02
              MO Center= -1.3D-04, -1.0D-10, -3.4D-06, r^2= 6.6D-04
  Bfn.         Coefficient        Function           Bfn.         Coefficient        Function  
  ----     -------------------  ------------         ----     -------------------  ------------
   121    -2.029341  -0.000000  1 H  s                122     1.896913  -0.000000  1 H  s          
   196    -0.357104  -0.000000  2 At px               132    -0.253834  -0.000000  1 H  px         
   120     0.251273   0.000000  1 H  s                179    -0.230736   0.000000  2 At s          
   193    -0.220785   0.000000  2 At px               180     0.161383   0.000000  2 At s          
   119    -0.159204   0.000000  1 H  s                177     0.101354   0.000000  2 At s          

 Vector   30  Occ=0.000000D+00  E= 9.246895D-02
              MO Center= -1.7D+00, -2.4D-03,  3.4D-06, r^2= 5.0D+00
  Bfn.         Coefficient        Function           Bfn.         Coefficient        Function  
  ----     -------------------  ------------         ----     -------------------  ------------
     7     2.009224  -0.285033  1 H  s                  8    -1.878109   0.266433  1 H  s          
    82     0.353564  -0.050157  2 At px                18     0.251318  -0.035652  1 H  px         
     6    -0.248782   0.035293  1 H  s                 65     0.228448  -0.032408  2 At s          
    79     0.218597  -0.031011  2 At px                66    -0.159783   0.022667  2 At s          
     5     0.157626  -0.022361  1 H  s                 63    -0.100349   0.014236  2 At s          

 Vector   31  Occ=0.000000D+00  E= 2.617311D-01
              MO Center= -4.3D-01,  1.8D-02,  4.5D-05, r^2= 1.3D+00
  Bfn.         Coefficient        Function           Bfn.         Coefficient        Function  
  ----     -------------------  ------------         ----     -------------------  ------------
    82     0.157318  -0.561028  2 At px                19    -0.537273  -0.150657  1 H  py         
   134    -0.150657   0.537273  1 H  pz                65    -0.117904   0.420470  2 At s          
   110     0.343753   0.096391  2 At d -2             227    -0.096391   0.343753  2 At d  1       
    79    -0.082464   0.294083  2 At px                 7     0.076555  -0.273010  1 H  s          
    80     0.250966   0.070373  2 At py               195     0.070373  -0.250966  2 At pz         

 Vector   32  Occ=0.000000D+00  E= 2.617311D-01
              MO Center= -4.7D-01,  1.0D-07, -4.5D-05, r^2= 1.3D+00
  Bfn.         Coefficient        Function           Bfn.         Coefficient        Function  
  ----     -------------------  ------------         ----     -------------------  ------------
   196     0.582667   0.000001  2 At px               133    -0.000001   0.557996  1 H  py         
    20     0.557996   0.000001  1 H  pz               179    -0.436688  -0.000000  2 At s          
   224     0.000001  -0.357011  2 At d -2             113     0.357011   0.000001  2 At d  1       
   193    -0.305426  -0.000000  2 At px               121     0.283540   0.000000  1 H  s          
   194     0.000000  -0.260646  2 At py                81    -0.260646  -0.000000  2 At pz         

 Vector   33  Occ=0.000000D+00  E= 2.667627D-01
              MO Center= -4.6D-01, -3.7D-07,  3.9D-05, r^2= 1.5D+00
  Bfn.         Coefficient        Function           Bfn.         Coefficient        Function  
  ----     -------------------  ------------         ----     -------------------  ------------
    20     0.630244   0.000001  1 H  pz               133     0.000002  -0.630244  1 H  py         
   113     0.384231   0.000001  2 At d  1             224    -0.000001   0.384231  2 At d -2       
    84    -0.221271  -0.000000  2 At pz               197    -0.000001   0.221271  2 At py         
    17    -0.155542  -0.000000  1 H  pz               130    -0.000000   0.155542  1 H  py         
   108    -0.149774  -0.000000  2 At d  1             219     0.000000  -0.149774  2 At d -2       

 Vector   34  Occ=0.000000D+00  E= 2.667627D-01
              MO Center= -1.9D-01, -1.6D-03, -3.9D-05, r^2= 6.9D-01
  Bfn.         Coefficient        Function           Bfn.         Coefficient        Function  
  ----     -------------------  ------------         ----     -------------------  ------------
   134     0.483660   0.404080  1 H  pz                19     0.404080  -0.483660  1 H  py         
   227     0.294865   0.246349  2 At d  1             110    -0.246349   0.294865  2 At d -2       
   198    -0.169807  -0.141868  2 At pz                83    -0.141867   0.169807  2 At py         
   131    -0.119365  -0.099725  1 H  pz                16    -0.099725   0.119365  1 H  py         
   222    -0.114939  -0.096027  2 At d  1             105     0.096027  -0.114939  2 At d -2       

 Vector   35  Occ=0.000000D+00  E= 2.705278D-01
              MO Center=  2.6D-01, -2.0D-01,  1.0D-02, r^2= 1.6D+00
  Bfn.         Coefficient        Function           Bfn.         Coefficient        Function  
  ----     -------------------  ------------         ----     -------------------  ------------
    82    -0.914061   0.795675  2 At px                65     0.736888  -0.641448  2 At s          
    79     0.523379  -0.455593  2 At px                83     0.389156   0.447057  2 At py         
   198     0.447058  -0.389156  2 At pz                18    -0.421751   0.367127  1 H  px         
   195    -0.354263   0.308380  2 At pz                80    -0.308380  -0.354263  2 At py         
     7    -0.344907   0.300236  1 H  s                  8    -0.281408   0.244961  1 H  s          

 Vector   36  Occ=0.000000D+00  E= 2.705278D-01
              MO Center=  1.6D-02, -2.4D-04, -1.0D-02, r^2= 8.8D-01
  Bfn.         Coefficient        Function           Bfn.         Coefficient        Function  
  ----     -------------------  ------------         ----     -------------------  ------------
   196     1.211860   0.000000  2 At px               179    -0.976964  -0.000000  2 At s          
   193    -0.693895  -0.000000  2 At px               197    -0.000000   0.592708  2 At py         
    84     0.592708   0.000000  2 At pz               132     0.559156   0.000000  1 H  px         
    81    -0.469681  -0.000000  2 At pz               194     0.000000  -0.469681  2 At py         
   121     0.457277   0.000000  1 H  s                122     0.373091   0.000000  1 H  s          

 Vector   37  Occ=0.000000D+00  E= 3.328253D-01
              MO Center=  7.7D-03,  3.9D-06, -8.4D-04, r^2= 1.0D+00
  Bfn.         Coefficient        Function           Bfn.         Coefficient        Function  
  ----     -------------------  ------------         ----     -------------------  ------------
   179    -2.004838  -0.000000  2 At s                180     1.785674   0.000000  2 At s          
    81     0.768137   0.000000  2 At pz               194     0.000000   0.768137  2 At py         
    84    -0.698209  -0.000000  2 At pz               197    -0.000000  -0.698209  2 At py         
   178     0.654894   0.000000  2 At s                122    -0.530693  -0.000000  1 H  s          
   193    -0.337044   0.000000  2 At px               177     0.211642  -0.000000  2 At s          

 Vector   38  Occ=0.000000D+00  E= 3.328253D-01
              MO Center= -9.9D-03,  1.5D-01,  8.4D-04, r^2= 1.2D+00
  Bfn.         Coefficient        Function           Bfn.         Coefficient        Function  
  ----     -------------------  ------------         ----     -------------------  ------------
    65    -0.744985   1.861283  2 At s                 66     0.663544  -1.657812  2 At s          
   195    -0.285435   0.713135  2 At pz                80    -0.713135  -0.285435  2 At py         
   198     0.259450  -0.648214  2 At pz                83     0.648214   0.259450  2 At py         
    64     0.243354  -0.608000  2 At s                  8    -0.197202   0.492693  1 H  s          
    79    -0.125243   0.312910  2 At px                63     0.078645  -0.196487  2 At s          

 Vector   39  Occ=0.000000D+00  E= 3.818160D-01
              MO Center= -6.8D-03,  3.2D-03, -4.6D-07, r^2= 1.0D-01
  Bfn.         Coefficient        Function           Bfn.         Coefficient        Function  
  ----     -------------------  ------------         ----     -------------------  ------------
   225    -0.831139  -0.189925  2 At d -1             112    -0.164479   0.719788  2 At d  0       
   114    -0.094962   0.415570  2 At d  2             220     0.290961   0.066488  2 At d -1       
   107     0.057580  -0.251979  2 At d  0             195     0.037262  -0.163066  2 At pz         
    80    -0.163066  -0.037263  2 At py               210     0.145702   0.033294  2 At d -1       
   109     0.033244  -0.145480  2 At d  2              97     0.028834  -0.126181  2 At d  0       

 Vector   40  Occ=0.000000D+00  E= 3.818160D-01
              MO Center= -7.3D-03, -1.0D-08,  4.5D-07, r^2= 5.0D-02
  Bfn.         Coefficient        Function           Bfn.         Coefficient        Function  
  ----     -------------------  ------------         ----     -------------------  ------------
   111     0.000001   0.852563  2 At d -1             226     0.738341  -0.000000  2 At d  0       
   228     0.426281  -0.000001  2 At d  2             106    -0.000000  -0.298460  2 At d -1       
   221    -0.258474   0.000000  2 At d  0              81     0.167269   0.000001  2 At pz         
   194    -0.000000  -0.167269  2 At py                96    -0.000000  -0.149457  2 At d -1       
   223    -0.149230   0.000000  2 At d  2             211    -0.129434   0.000000  2 At d  0       

 Vector   41  Occ=0.000000D+00  E= 3.835751D-01
              MO Center=  4.6D-03,  8.9D-08, -7.8D-06, r^2= 3.0D-01
  Bfn.         Coefficient        Function           Bfn.         Coefficient        Function  
  ----     -------------------  ------------         ----     -------------------  ------------
   180    -3.337695   0.000008  2 At s                179     2.091021  -0.000005  2 At s          
   196     1.847523  -0.000004  2 At px               122     1.616150  -0.000004  1 H  s          
   132     1.210675  -0.000003  1 H  px               121     0.896387  -0.000002  1 H  s          
   178    -0.572090   0.000001  2 At s                 81     0.453689  -0.000005  2 At pz         
   194    -0.000002   0.453689  2 At py               193    -0.432899   0.000001  2 At px         

 Vector   42  Occ=0.000000D+00  E= 3.835751D-01
              MO Center= -1.2D-02,  2.2D-02,  8.1D-06, r^2= 4.1D-01
  Bfn.         Coefficient        Function           Bfn.         Coefficient        Function  
  ----     -------------------  ------------         ----     -------------------  ------------
    66    -0.532787  -3.294897  2 At s                 65     0.333784   2.064208  2 At s          
    82     0.294915   1.823833  2 At px                 8     0.257982   1.595427  1 H  s          
    18     0.193257   1.195151  1 H  px                 7     0.143088   0.884893  1 H  s          
    64    -0.091321  -0.564754  2 At s                195    -0.072418  -0.447872  2 At pz         
    80     0.447871  -0.072424  2 At py                79    -0.069102  -0.427349  2 At px         

 Vector   43  Occ=0.000000D+00  E= 3.857479D-01
              MO Center=  1.1D-02,  2.6D-07,  2.8D-06, r^2= 1.9D+00
  Bfn.         Coefficient        Function           Bfn.         Coefficient        Function  
  ----     -------------------  ------------         ----     -------------------  ------------
   194     0.000013   1.147148  2 At py                81    -1.147148   0.000016  2 At pz         
   197    -0.000011  -0.949501  2 At py                84     0.949501  -0.000013  2 At pz         
   191    -0.000004  -0.335481  2 At py                78     0.335481  -0.000005  2 At pz         
   188    -0.000002  -0.166306  2 At py                75     0.166306  -0.000002  2 At pz         
   111     0.000002   0.123597  2 At d -1             226     0.107038  -0.000001  2 At d  0       

 Vector   44  Occ=0.000000D+00  E= 3.857479D-01
              MO Center=  1.1D-02,  3.3D-03, -3.1D-06, r^2= 1.8D+00
  Bfn.         Coefficient        Function           Bfn.         Coefficient        Function  
  ----     -------------------  ------------         ----     -------------------  ------------
    80     1.131838  -0.186790  2 At py               195     0.186787   1.131839  2 At pz         
    83    -0.936830   0.154607  2 At py               198    -0.154605  -0.936830  2 At pz         
    77    -0.331003   0.054626  2 At py               192    -0.054625  -0.331003  2 At pz         
    74    -0.164087   0.027080  2 At py               189    -0.027079  -0.164087  2 At pz         
   225    -0.121947   0.020125  2 At d -1             112     0.017429   0.105609  2 At d  0       

 Vector   45  Occ=0.000000D+00  E= 3.978196D-01
              MO Center= -6.4D-11,  3.9D-12,  1.1D-10, r^2= 3.2D-08
  Bfn.         Coefficient        Function           Bfn.         Coefficient        Function  
  ----     -------------------  ------------         ----     -------------------  ------------
   111    -0.000000   0.873641  2 At d -1             226    -0.756595   0.000000  2 At d  0       
   228    -0.436820   0.000000  2 At d  2             106     0.000000  -0.328428  2 At d -1       
   221     0.284427  -0.000000  2 At d  0             223     0.164214  -0.000000  2 At d  2       
    96     0.000000  -0.143207  2 At d -1             211     0.124021  -0.000000  2 At d  0       
   213     0.071603  -0.000000  2 At d  2             101     0.000000  -0.039219  2 At d -1       

 Vector   46  Occ=0.000000D+00  E= 3.978196D-01
              MO Center=  1.9D-04,  2.2D-07,  1.7D-08, r^2= 1.3D-01
  Bfn.         Coefficient        Function           Bfn.         Coefficient        Function  
  ----     -------------------  ------------         ----     -------------------  ------------
   225    -0.820730  -0.299417  2 At d -1             112     0.259302  -0.710773  2 At d  0       
   114     0.149708  -0.410365  2 At d  2             220     0.308537   0.112560  2 At d -1       
   107    -0.097480   0.267201  2 At d  0             109    -0.056280   0.154269  2 At d  2       
   210     0.134534   0.049080  2 At d -1              97    -0.042505   0.116510  2 At d  0       
    99    -0.024540   0.067267  2 At d  2             215     0.036844   0.013441  2 At d -1       

 Vector   47  Occ=0.000000D+00  E= 5.306807D-01
              MO Center= -2.4D-02,  5.4D-09, -3.4D-05, r^2= 1.0D-01
  Bfn.         Coefficient        Function           Bfn.         Coefficient        Function  
  ----     -------------------  ------------         ----     -------------------  ------------
   121    -1.622799   0.000000  1 H  s                228     1.145019  -0.000000  2 At d  2       
   180     1.096221  -0.000000  2 At s                196    -1.053491   0.000000  2 At px         
   179    -0.883767   0.000000  2 At s                226    -0.661077   0.000000  2 At d  0       
   193     0.387853  -0.000000  2 At px               122     0.342814   0.000000  1 H  s          
   223    -0.326132   0.000000  2 At d  2             132     0.304758   0.000000  1 H  px         

 Vector   48  Occ=0.000000D+00  E= 5.306807D-01
              MO Center= -5.3D-01,  5.8D-05,  3.4D-05, r^2= 3.5D+00
  Bfn.         Coefficient        Function           Bfn.         Coefficient        Function  
  ----     -------------------  ------------         ----     -------------------  ------------
     7     1.622609   0.024808  1 H  s                114    -1.144886  -0.017504  2 At d  2       
    66    -1.096093  -0.016758  2 At s                 82     1.053368   0.016105  2 At px         
    65     0.883664   0.013510  2 At s                112     0.661000   0.010106  2 At d  0       
    79    -0.387808  -0.005929  2 At px                 8    -0.342774  -0.005241  1 H  s          
   109     0.326094   0.004986  2 At d  2              18    -0.304723  -0.004659  1 H  px         

 Vector   49  Occ=0.000000D+00  E= 5.608115D-01
              MO Center= -2.7D-01, -1.1D-07,  5.6D-05, r^2= 1.6D+00
  Bfn.         Coefficient        Function           Bfn.         Coefficient        Function  
  ----     -------------------  ------------         ----     -------------------  ------------
   224    -0.000000   0.941010  2 At d -2             113    -0.941010   0.000001  2 At d  1       
   133    -0.000000   0.826270  1 H  py                20     0.826270  -0.000000  1 H  pz         
   197     0.000000  -0.316320  2 At py                84    -0.316320   0.000000  2 At pz         
   219     0.000000  -0.294658  2 At d -2             108     0.294658  -0.000000  2 At d  1       
   121     0.291481   0.000000  1 H  s                228    -0.235403  -0.000000  2 At d  2       

 Vector   50  Occ=0.000000D+00  E= 5.608115D-01
              MO Center= -6.2D-02, -2.7D-03, -5.6D-05, r^2= 3.6D-01
  Bfn.         Coefficient        Function           Bfn.         Coefficient        Function  
  ----     -------------------  ------------         ----     -------------------  ------------
   110     0.303575   0.890698  2 At d -2             227    -0.890698   0.303574  2 At d  1       
    19     0.266559   0.782092  1 H  py               134     0.782092  -0.266559  1 H  pz         
    83    -0.102047  -0.299407  2 At py               198    -0.299407   0.102046  2 At pz         
   105    -0.095058  -0.278903  2 At d -2             222     0.278903  -0.095058  2 At d  1       
     7    -0.275896   0.094033  1 H  s                114     0.222817  -0.075942  2 At d  2       

 Vector   51  Occ=0.000000D+00  E= 5.645724D-01
              MO Center= -2.7D-01, -1.1D-04, -6.2D-04, r^2= 1.6D+00
  Bfn.         Coefficient        Function           Bfn.         Coefficient        Function  
  ----     -------------------  ------------         ----     -------------------  ------------
   113    -0.938410   0.000012  2 At d  1             224    -0.000010  -0.938409  2 At d -2       
    20     0.811588  -0.000010  1 H  pz               133    -0.000008  -0.811587  1 H  py         
   108     0.300822  -0.000004  2 At d  1             219     0.000003   0.300822  2 At d -2       
    84    -0.291714   0.000004  2 At pz               197     0.000003   0.291714  2 At py         
   110    -0.165038   0.193346  2 At d -2             227     0.193347   0.165030  2 At d  1       

 Vector   52  Occ=0.000000D+00  E= 5.645724D-01
              MO Center= -1.3D-01, -1.5D-03,  6.2D-04, r^2= 8.0D-01
  Bfn.         Coefficient        Function           Bfn.         Coefficient        Function  
  ----     -------------------  ------------         ----     -------------------  ------------
   227    -0.713680  -0.609323  2 At d  1             110     0.609320  -0.713680  2 At d -2       
   134     0.617229   0.526975  1 H  pz                19     0.526973  -0.617230  1 H  py         
   222     0.228782   0.195328  2 At d  1             105    -0.195327   0.228782  2 At d -2       
   198    -0.221855  -0.189414  2 At pz                83    -0.189413   0.221855  2 At py         
   224     0.000025  -0.254205  2 At d -2             113    -0.254201  -0.000031  2 At d  1       

 Vector   53  Occ=0.000000D+00  E= 7.127478D-01
              MO Center= -1.5D+00, -4.4D-04,  2.0D-06, r^2= 3.1D+00
  Bfn.         Coefficient        Function           Bfn.         Coefficient        Function  
  ----     -------------------  ------------         ----     -------------------  ------------
     7    -2.697277   0.606671  1 H  s                  6     2.541685  -0.571676  1 H  s          
     8     1.705304  -0.383557  1 H  s                 66    -1.191149   0.267913  2 At s          
    18     0.648406  -0.145840  1 H  px               114    -0.630010   0.141702  2 At d  2       
    79     0.549547  -0.123604  2 At px                65     0.500667  -0.112610  2 At s          
     5    -0.383509   0.086259  1 H  s                112     0.363736  -0.081812  2 At d  0       

 Vector   54  Occ=0.000000D+00  E= 7.127478D-01
              MO Center= -1.0D-04, -4.6D-10, -2.0D-06, r^2= 1.9D-03
  Bfn.         Coefficient        Function           Bfn.         Coefficient        Function  
  ----     -------------------  ------------         ----     -------------------  ------------
   121     2.764661  -0.000000  1 H  s                120    -2.605183   0.000000  1 H  s          
   122    -1.747906   0.000000  1 H  s                180     1.220907  -0.000000  2 At s          
   132    -0.664605  -0.000000  1 H  px               228     0.645749   0.000000  2 At d  2       
   193    -0.563276  -0.000000  2 At px               179    -0.513175   0.000000  2 At s          
   119     0.393090  -0.000000  1 H  s                226    -0.372823  -0.000000  2 At d  0       

 Vector   55  Occ=0.000000D+00  E= 8.572144D-01
              MO Center= -7.0D-01,  1.7D-03, -4.3D-06, r^2= 3.6D+00
  Bfn.         Coefficient        Function           Bfn.         Coefficient        Function  
  ----     -------------------  ------------         ----     -------------------  ------------
     7     5.690270  -0.565751  1 H  s                 66    -3.823464   0.380145  2 At s          
    18     3.584564  -0.356393  1 H  px                79     2.553717  -0.253901  2 At px         
   114    -1.834164   0.182360  2 At d  2              82     1.756291  -0.174618  2 At px         
     6    -1.492566   0.148397  1 H  s                112     1.058955  -0.105286  2 At d  0       
    76    -0.486781   0.048398  2 At px                35     0.435012  -0.043251  1 H  d  2       

 Vector   56  Occ=0.000000D+00  E= 8.572144D-01
              MO Center= -5.0D-04,  8.3D-11,  4.3D-06, r^2= 6.8D-03
  Bfn.         Coefficient        Function           Bfn.         Coefficient        Function  
  ----     -------------------  ------------         ----     -------------------  ------------
   121     5.718326  -0.000000  1 H  s                180    -3.842315   0.000000  2 At s          
   132     3.602238  -0.000000  1 H  px               193     2.566308  -0.000000  2 At px         
   228    -1.843207   0.000000  2 At d  2             196     1.764950  -0.000000  2 At px         
   120    -1.499925   0.000000  1 H  s                226     1.064176  -0.000000  2 At d  0       
   190    -0.489181  -0.000000  2 At px               149     0.437157  -0.000000  1 H  d  2       

 Vector   57  Occ=0.000000D+00  E= 1.258948D+00
              MO Center= -3.3D-05, -6.1D-11,  2.3D-08, r^2= 1.1D-04
  Bfn.         Coefficient        Function           Bfn.         Coefficient        Function  
  ----     -------------------  ------------         ----     -------------------  ------------
    32     0.000001  -0.867535  1 H  d -1             147    -0.745958  -0.000000  1 H  d  0       
   149    -0.430679  -0.000000  1 H  d  2              27    -0.000000   0.251323  1 H  d -1       
   142     0.216102   0.000000  1 H  d  0             111    -0.000000   0.167152  2 At d -1       
   226     0.143691  -0.000000  2 At d  0             144     0.124767   0.000000  1 H  d  2       
   228     0.082960   0.000000  2 At d  2              22     0.000000  -0.057716  1 H  d -1       

 Vector   58  Occ=0.000000D+00  E= 1.258948D+00
              MO Center= -2.2D-03,  7.9D-06, -2.3D-08, r^2= 5.5D-03
  Bfn.         Coefficient        Function           Bfn.         Coefficient        Function  
  ----     -------------------  ------------         ----     -------------------  ------------
   146     0.866350  -0.045331  1 H  d -1              33    -0.038977  -0.744939  1 H  d  0       
    35    -0.022504  -0.430091  1 H  d  2             141    -0.250980   0.013132  1 H  d -1       
    28     0.011292   0.215807  1 H  d  0             225    -0.166924   0.008734  2 At d -1       
   112     0.007508   0.143495  2 At d  0              30     0.006519   0.124596  1 H  d  2       
   114     0.004335   0.082847  2 At d  2             136     0.057637  -0.003016  1 H  d -1       

 Vector   59  Occ=0.000000D+00  E= 1.259008D+00
              MO Center= -1.6D-08, -1.2D-11, -2.3D-09, r^2= 3.9D-08
  Bfn.         Coefficient        Function           Bfn.         Coefficient        Function  
  ----     -------------------  ------------         ----     -------------------  ------------
    32     0.000001  -0.861555  1 H  d -1             147     0.751477  -0.000000  1 H  d  0       
   149     0.433865  -0.000000  1 H  d  2              27    -0.000000   0.249556  1 H  d -1       
   142    -0.217671   0.000000  1 H  d  0             111    -0.000000   0.171767  2 At d -1       
   226    -0.149785  -0.000000  2 At d  0             144    -0.125672   0.000000  1 H  d  2       
   228    -0.086478   0.000000  2 At d  2              22     0.000000  -0.057307  1 H  d -1       

 Vector   60  Occ=0.000000D+00  E= 1.259008D+00
              MO Center= -2.7D-02,  3.2D-06,  2.3D-09, r^2= 6.5D-02
  Bfn.         Coefficient        Function           Bfn.         Coefficient        Function  
  ----     -------------------  ------------         ----     -------------------  ------------
   146    -0.847102   0.157147  1 H  d -1              33    -0.137068  -0.738871  1 H  d  0       
    35    -0.079136  -0.426587  1 H  d  2             141     0.245369  -0.045519  1 H  d -1       
    28     0.039703   0.214019  1 H  d  0             225     0.168885  -0.031330  2 At d -1       
   112     0.027321   0.147272  2 At d  0              30     0.022922   0.123564  1 H  d  2       
   114     0.015774   0.085028  2 At d  2             136    -0.056346   0.010453  1 H  d -1       

 Vector   61  Occ=0.000000D+00  E= 1.297096D+00
              MO Center= -6.9D-01, -5.0D-06, -1.8D-08, r^2= 1.3D+00
  Bfn.         Coefficient        Function           Bfn.         Coefficient        Function  
  ----     -------------------  ------------         ----     -------------------  ------------
   148     0.014870   0.901121  1 H  d  1              31     0.901121  -0.014870  1 H  d -2       
   227     0.007902   0.478876  2 At d  1             110     0.478876  -0.007902  2 At d -2       
   131    -0.007217  -0.437326  1 H  pz                16     0.437325  -0.007216  1 H  py         
   195     0.004908   0.297421  2 At pz                80    -0.297421   0.004908  2 At py         
   222    -0.004288  -0.259833  2 At d  1             105    -0.259833   0.004288  2 At d -2       

 Vector   62  Occ=0.000000D+00  E= 1.297096D+00
              MO Center= -6.9D-01, -1.3D-09,  1.9D-08, r^2= 1.3D+00
  Bfn.         Coefficient        Function           Bfn.         Coefficient        Function  
  ----     -------------------  ------------         ----     -------------------  ------------
    34     0.901244  -0.000001  1 H  d  1             145    -0.000001  -0.901244  1 H  d -2       
   113     0.478941  -0.000000  2 At d  1             224    -0.000000  -0.478941  2 At d -2       
    17    -0.437385   0.000000  1 H  pz               130    -0.000000  -0.437385  1 H  py         
    81     0.297462  -0.000000  2 At pz               194     0.000000   0.297462  2 At py         
   108    -0.259868   0.000000  2 At d  1             219     0.000000   0.259868  2 At d -2       

 Vector   63  Occ=0.000000D+00  E= 1.300769D+00
              MO Center= -6.9D-01, -7.2D-07,  3.4D-09, r^2= 1.3D+00
  Bfn.         Coefficient        Function           Bfn.         Coefficient        Function  
  ----     -------------------  ------------         ----     -------------------  ------------
    31    -0.902565   0.033231  1 H  d -2             148     0.033231   0.902564  1 H  d  1       
   110    -0.473431   0.017431  2 At d -2             227     0.017431   0.473431  2 At d  1       
    16    -0.437196   0.016097  1 H  py               131    -0.016097  -0.437196  1 H  pz         
    80     0.337898  -0.012441  2 At py               195     0.012441   0.337898  2 At pz         
   105     0.252433  -0.009294  2 At d -2             222    -0.009294  -0.252433  2 At d  1       

 Vector   64  Occ=0.000000D+00  E= 1.300769D+00
              MO Center= -6.9D-01, -1.2D-09, -1.5D-09, r^2= 1.3D+00
  Bfn.         Coefficient        Function           Bfn.         Coefficient        Function  
  ----     -------------------  ------------         ----     -------------------  ------------
   145    -0.000001  -0.903176  1 H  d -2              34    -0.903176   0.000001  1 H  d  1       
   224    -0.000000  -0.473751  2 At d -2             113    -0.473751   0.000000  2 At d  1       
   130    -0.000000  -0.437492  1 H  py                17     0.437492  -0.000000  1 H  pz         
   194     0.000000   0.338127  2 At py                81    -0.338127   0.000000  2 At pz         
[...]
              MO Center=  2.5D-03,  6.4D-06, -2.1D-08, r^2= 5.1D-03
  Bfn.         Coefficient        Function           Bfn.         Coefficient        Function  
  ----     -------------------  ------------         ----     -------------------  ------------
   202    -0.825652   0.288753  2 At d  1              85    -0.288753  -0.825652  2 At d -2       
   207     0.672175  -0.235078  2 At d  1              90     0.235078   0.672175  2 At d -2       
   212    -0.589276   0.206086  2 At d  1              95    -0.206086  -0.589276  2 At d -2       
   217     0.444188  -0.155345  2 At d  1             100     0.155345   0.444188  2 At d -2       
   200    -0.136822  -0.391225  2 At d -1              87    -0.338810   0.118491  2 At d  0       

 Vector  214  Occ=0.000000D+00  E= 1.541894D+02
              MO Center=  8.2D-03, -1.1D-12,  2.1D-08, r^2= 1.6D-02
  Bfn.         Coefficient        Function           Bfn.         Coefficient        Function  
  ----     -------------------  ------------         ----     -------------------  ------------
    88     0.874689  -0.000000  2 At d  1             199     0.000000   0.874689  2 At d -2       
    93    -0.712096   0.000000  2 At d  1             204    -0.000000  -0.712096  2 At d -2       
    98     0.624273  -0.000000  2 At d  1             209     0.000000   0.624273  2 At d -2       
   103    -0.470569   0.000000  2 At d  1             214    -0.000000  -0.470569  2 At d -2       
    86    -0.000000  -0.414460  2 At d -1             201    -0.358933   0.000000  2 At d  0       

 Vector  215  Occ=0.000000D+00  E= 1.542861D+02
              MO Center=  3.4D-03, -4.6D-12,  3.0D-08, r^2= 6.9D-03
  Bfn.         Coefficient        Function           Bfn.         Coefficient        Function  
  ----     -------------------  ------------         ----     -------------------  ------------
   203    -0.964142  -0.000000  2 At d  2             208     0.790338   0.000000  2 At d  2       
   213    -0.706908  -0.000000  2 At d  2             199    -0.000000   0.564783  2 At d -2       
    88    -0.564783   0.000000  2 At d  1             201     0.556647   0.000000  2 At d  0       
   218     0.554555   0.000000  2 At d  2             204     0.000000  -0.459751  2 At d -2       
    93     0.459751  -0.000000  2 At d  1             206    -0.456302  -0.000000  2 At d  0       

 Vector  216  Occ=0.000000D+00  E= 1.542861D+02
              MO Center=  1.2D-02, -4.5D-05, -3.0D-08, r^2= 2.3D-02
  Bfn.         Coefficient        Function           Bfn.         Coefficient        Function  
  ----     -------------------  ------------         ----     -------------------  ------------
    89     0.850795  -0.453561  2 At d  2              94    -0.697424   0.371799  2 At d  2       
    99     0.623802  -0.332551  2 At d  2              85     0.265691   0.498385  2 At d -2       
   202    -0.498385   0.265691  2 At d  1              87    -0.491206   0.261864  2 At d  0       
   104    -0.489360   0.260879  2 At d  2              90    -0.216281  -0.405702  2 At d -2       
   207     0.405702  -0.216281  2 At d  1              92     0.402658  -0.214658  2 At d  0       

 Vector  217  Occ=0.000000D+00  E= 1.791325D+02
              MO Center=  6.0D-03,  5.6D-05, -4.7D-07, r^2= 1.6D-02
  Bfn.         Coefficient        Function           Bfn.         Coefficient        Function  
  ----     -------------------  ------------         ----     -------------------  ------------
   183     2.244266   0.496339  2 At pz                68    -0.496339   2.244266  2 At py         
    67    -2.171781  -0.480308  2 At px               186    -2.170510  -0.480027  2 At pz         
    71     0.480027  -2.170510  2 At py                70     2.109542   0.466544  2 At px         
    73    -0.619861  -0.137088  2 At px               189     0.614607   0.135926  2 At pz         
    74    -0.135926   0.614607  2 At py                76     0.373035   0.082500  2 At px         

 Vector  218  Occ=0.000000D+00  E= 1.791325D+02
              MO Center=  6.8D-03,  1.8D-10,  4.7D-07, r^2= 1.7D-02
  Bfn.         Coefficient        Function           Bfn.         Coefficient        Function  
  ----     -------------------  ------------         ----     -------------------  ------------
    69    -2.298496  -0.000000  2 At pz               182     0.000000  -2.298496  2 At py         
   181    -2.224259  -0.000000  2 At px                72     2.222958   0.000000  2 At pz         
   185    -0.000000   2.222958  2 At py               184     2.160516   0.000000  2 At px         
   187    -0.634839  -0.000000  2 At px                75    -0.629458  -0.000000  2 At pz         
   188     0.000000  -0.629458  2 At py               190     0.382049   0.000000  2 At px         

 Vector  219  Occ=0.000000D+00  E= 1.897155D+02
              MO Center=  9.3D-03, -3.0D-08, -5.0D-10, r^2= 2.2D-02
  Bfn.         Coefficient        Function           Bfn.         Coefficient        Function  
  ----     -------------------  ------------         ----     -------------------  ------------
   183     0.676150   2.677946  2 At pz                68     2.677946  -0.676150  2 At py         
   186    -0.651102  -2.578740  2 At pz                71    -2.578740   0.651102  2 At py         
   189     0.182570   0.723081  2 At pz                74     0.723081  -0.182570  2 At py         
   192    -0.103175  -0.408634  2 At pz                77    -0.408634   0.103175  2 At py         
   195     0.034733   0.137564  2 At pz                80     0.137564  -0.034733  2 At py         

 Vector  220  Occ=0.000000D+00  E= 1.897155D+02
              MO Center=  9.9D-03,  1.9D-10,  2.4D-10, r^2= 2.4D-02
  Bfn.         Coefficient        Function           Bfn.         Coefficient        Function  
  ----     -------------------  ------------         ----     -------------------  ------------
    69    -2.761984  -0.004209  2 At pz               182    -0.004209   2.761984  2 At py         
    72     2.659665   0.004053  2 At pz               185     0.004053  -2.659665  2 At py         
    75    -0.745773  -0.001136  2 At pz               188    -0.001136   0.745773  2 At py         
    78     0.421457   0.000642  2 At pz               191     0.000642  -0.421457  2 At py         
    81    -0.141881  -0.000216  2 At pz               194    -0.000216   0.141881  2 At py         

 Vector  221  Occ=0.000000D+00  E= 1.900019D+02
              MO Center=  3.1D-03,  8.3D-13, -6.8D-08, r^2= 7.6D-03
  Bfn.         Coefficient        Function           Bfn.         Coefficient        Function  
  ----     -------------------  ------------         ----     -------------------  ------------
   181    -3.249120   0.000000  2 At px               184     3.141770  -0.000000  2 At px         
   182     0.000000   1.552958  2 At py                69     1.552958  -0.000000  2 At pz         
   185    -0.000000  -1.495301  2 At py                72    -1.495301   0.000000  2 At pz         
   187    -0.913816   0.000000  2 At px               190     0.549081  -0.000000  2 At px         
   188     0.000000   0.419202  2 At py                75     0.419202  -0.000000  2 At pz         

 Vector  222  Occ=0.000000D+00  E= 1.900019D+02
              MO Center=  1.3D-02,  2.9D-05,  6.8D-08, r^2= 3.3D-02
  Bfn.         Coefficient        Function           Bfn.         Coefficient        Function  
  ----     -------------------  ------------         ----     -------------------  ------------
    67     3.232263  -0.330549  2 At px                70    -3.125469   0.319627  2 At px         
    68     0.157990   1.544900  2 At py               183     1.544900  -0.157990  2 At pz         
    71    -0.152124  -1.487543  2 At py               186    -1.487543   0.152124  2 At pz         
    73     0.909075  -0.092967  2 At px                76    -0.546233   0.055861  2 At px         
    74     0.042647   0.417027  2 At py               189     0.417027  -0.042647  2 At pz         

 Vector  223  Occ=0.000000D+00  E= 6.886932D+02
              MO Center=  1.9D-02, -1.0D-10, -8.7D-13, r^2= 2.0D-02
  Bfn.         Coefficient        Function           Bfn.         Coefficient        Function  
  ----     -------------------  ------------         ----     -------------------  ------------
    61    -8.602846   0.009142  2 At s                 60     6.184153  -0.006572  2 At s          
    62     3.988692  -0.004239  2 At s                 63    -1.386017   0.001473  2 At s          
    64     1.014771  -0.001078  2 At s                 65    -0.392689   0.000417  2 At s          
    59    -0.305107   0.000324  2 At s                 66     0.121873  -0.000130  2 At s          
    79     0.056974  -0.000061  2 At px                 7     0.055569  -0.000059  1 H  s          

 Vector  224  Occ=0.000000D+00  E= 6.886932D+02
              MO Center=  7.3D-14, -2.2D-21,  6.8D-19, r^2= 1.4D-12
  Bfn.         Coefficient        Function           Bfn.         Coefficient        Function  
  ----     -------------------  ------------         ----     -------------------  ------------
   175    -8.602851  -0.000000  2 At s                174     6.184156   0.000000  2 At s          
   176     3.988694   0.000000  2 At s                177    -1.386018  -0.000000  2 At s          
   178     1.014772   0.000000  2 At s                179    -0.392689  -0.000000  2 At s          
   173    -0.305107  -0.000000  2 At s                180     0.121873   0.000000  2 At s          
   193     0.056974   0.000000  2 At px               121     0.055569   0.000000  1 H  s          

 Vector  225  Occ=0.000000D+00  E= 7.950950D+02
              MO Center= -1.7D+00,  9.2D-12,  1.1D-13, r^2= 4.8D-03
  Bfn.         Coefficient        Function           Bfn.         Coefficient        Function  
  ----     -------------------  ------------         ----     -------------------  ------------
     1     1.263947  -0.010738  1 H  s                  2    -1.010789   0.008587  1 H  s          
     3     0.672655  -0.005715  1 H  s                  4    -0.477617   0.004058  1 H  s          
     5     0.351254  -0.002984  1 H  s                  6    -0.241520   0.002052  1 H  s          
     7     0.131368  -0.001116  1 H  s                  8    -0.036968   0.000314  1 H  s          

 Vector  226  Occ=0.000000D+00  E= 7.950950D+02
              MO Center=  6.9D-14, -1.3D-22, -5.1D-22, r^2= 3.1D-13
  Bfn.         Coefficient        Function           Bfn.         Coefficient        Function  
  ----     -------------------  ------------         ----     -------------------  ------------
   115    -1.263992   0.000000  1 H  s                116     1.010825  -0.000000  1 H  s          
   117    -0.672679   0.000000  1 H  s                118     0.477634  -0.000000  1 H  s          
   119    -0.351267   0.000000  1 H  s                120     0.241528  -0.000000  1 H  s          
   121    -0.131372   0.000000  1 H  s                122     0.036969  -0.000000  1 H  s          

 Vector  227  Occ=0.000000D+00  E= 1.305971D+04
              MO Center= -1.1D-17, -4.8D-26,  1.8D-22, r^2= 2.2D-16
  Bfn.         Coefficient        Function           Bfn.         Coefficient        Function  
  ----     -------------------  ------------         ----     -------------------  ------------
   175     2.781588   0.000000  2 At s                174    -1.946217  -0.000000  2 At s          
   176    -1.329584  -0.000000  2 At s                173     1.135756   0.000000  2 At s          
   177     0.479996   0.000000  2 At s                178    -0.354265  -0.000000  2 At s          
   179     0.138059   0.000000  2 At s                180    -0.042870  -0.000000  2 At s          

 Vector  228  Occ=0.000000D+00  E= 1.305971D+04
              MO Center=  2.0D-02,  3.9D-12, -5.9D-15, r^2= 2.7D-03
  Bfn.         Coefficient        Function           Bfn.         Coefficient        Function  
  ----     -------------------  ------------         ----     -------------------  ------------
    61    -2.781548  -0.014831  2 At s                 60     1.946190   0.010377  2 At s          
    62     1.329565   0.007089  2 At s                 59    -1.135739  -0.006055  2 At s          
    63    -0.479989  -0.002559  2 At s                 64     0.354260   0.001889  2 At s          
    65    -0.138057  -0.000736  2 At s                 66     0.042869   0.000229  2 At s          


   alpha - beta orbital overlaps 
   ----------------------------- 


   alpha      1      2      3      4      5      6      7      8      9     10
    beta     79     79     79     79     79     79     79     79     79     80
 overlap   0.000  0.001  0.003  0.014  0.033  0.087  0.137  0.026  0.001  0.000


   alpha     11     12     13     14     15     16     17     18     19     20
    beta     81     79     80     81     79     80     81     79     80     81
 overlap   0.000  0.002  0.001  0.001  0.010  0.004  0.004  0.037  0.016  0.016


   alpha     21     22     23     24     25     26     27     28     29     30
    beta     80    101     73     81     73     80    101     73     81     73
 overlap   0.000  0.000  0.000  0.000  0.000  0.001  0.000  0.001  0.001  0.002


   alpha     31     32     33     34     35     36     37     38     39     40
    beta     80    101     79     81     79    100    101    100    103     73
 overlap   0.005  0.000  0.007  0.005  0.012  0.000  0.000  0.000  0.000  0.001


   alpha     41     42     43     44     45     46     47     48     49     50
    beta    103     73    100    101    100    103     79    103     79    100
 overlap   0.000  0.001  0.001  0.000  0.000  0.001  0.002  0.001  0.003  0.000


   alpha     51     52     53     54     55     56     57     58     59     60
    beta    101    100    101     79    103     79    103     79     62     62
 overlap   0.000  0.000  0.000  0.000  0.000  0.000  0.000  0.000  0.001  0.180


   alpha     61     62     63     64     65     66     67     68     69     70
    beta     63     63     63     63     65     65     73     74     75     73
 overlap   0.834  1.573  1.699  0.654  0.859  0.405  0.097  0.103  0.103  0.271


   alpha     71     72     73     74     75     76     77     78     79     80
    beta     74     75     73     74     75     73     74     75     79     80
 overlap   0.291  0.291  0.466  0.516  0.516  0.367  0.390  0.390  0.155  0.371


   alpha     81     82     83     84     85     86     87     88     89     90
    beta     81     79     80     81    100    101    102    103    104    100
 overlap   0.371  0.078  0.316  0.316  0.001  0.001  0.001  0.001  0.001  0.036


   alpha     91     92     93     94     95     96     97     98     99    100
    beta    101    102    103    104    100    101    102    103    104    100
 overlap   0.036  0.036  0.036  0.036  0.155  0.155  0.155  0.155  0.155  0.270


   alpha    101    102    103    104    105    106    107    108    109    110
    beta    101    102    103    104    100    101    102    103    104    100
 overlap   0.269  0.270  0.270  0.272  0.151  0.151  0.151  0.151  0.150  0.029


   alpha    111    112    113    114
    beta    101    102    103    104
 overlap   0.030  0.030  0.029  0.030

     --------------------------
     Expectation value of S2:  
     --------------------------
      <S2> =      0.1182 (Exact =     0.0000)


     Multipole analysis of the density
     ---------------------------------

     L   x y z        total         alpha         beta         nuclear
     -   - - -        -----         -----         ----         -------
     0   0 0 0     -0.000000    -13.000000    -13.000000     26.000000

     1   1 0 0      0.069246      1.161588      1.161588     -2.253931
     1   0 1 0     -0.000000     -0.000000     -0.000000      0.000000
     1   0 0 1      0.000000      0.000000      0.000000      0.000000

     2   2 0 0    -21.495577    -15.863271    -15.863271     10.230964
     2   1 1 0     -0.000000     -0.000000     -0.000000      0.000000
     2   1 0 1     -0.000000     -0.000000     -0.000000      0.000000
     2   0 2 0    -24.487276    -12.243638    -12.243638      0.000000
     2   0 1 1     -0.000000     -0.000000     -0.000000      0.000000
     2   0 0 2    -24.487276    -12.243638    -12.243638      0.000000


 Parallel integral file used     108 records with       0 large values


 Task  times  cpu:       14.9s     wall:       15.9s
 Summary of allocated global arrays
-----------------------------------
  No active global arrays



                         GA Statistics for process    0
                         ------------------------------

       create   destroy   get      put      acc     scatter   gather  read&inc
calls: 1241     1241     2.89e+04 1.93e+04 3.91e+04    0        0     2022     
number of processes/call 1.00e+00 1.00e+00 1.00e+00 0.00e+00 0.00e+00
bytes total:             2.93e+08 2.31e+08 1.33e+08 0.00e+00 0.00e+00 1.62e+04
bytes remote:            0.00e+00 0.00e+00 0.00e+00 0.00e+00 0.00e+00 0.00e+00
Max memory consumed for GA by this process: 31918176 bytes
MA_summarize_allocated_blocks: starting scan ...
MA_summarize_allocated_blocks: scan completed: 0 heap blocks, 0 stack blocks
MA usage statistics:

	allocation statistics:
					      heap	     stack
					      ----	     -----
	current number of blocks	         0	         0
	maximum number of blocks	        45	        57
	current total bytes		         0	         0
	maximum total bytes		 366740792	  43801656
	maximum total K-bytes		    366741	     43802
	maximum total M-bytes		       367	        44


                                NWChem Input Module
                                -------------------





                                     CITATION
                                     --------
                Please cite the following reference when publishing
                           results obtained with NWChem:

                 M. Valiev, E.J. Bylaska, N. Govind, K. Kowalski,
              T.P. Straatsma, H.J.J. van Dam, D. Wang, J. Nieplocha,
                        E. Apra, T.L. Windus, W.A. de Jong
                 "NWChem: a comprehensive and scalable open-source
                  solution for large scale molecular simulations"
                      Comput. Phys. Commun. 181, 1477 (2010)
                           doi:10.1016/j.cpc.2010.04.018

                                      AUTHORS
                                      -------
          E. Apra, E. J. Bylaska, W. A. de Jong, N. Govind, K. Kowalski,
       T. P. Straatsma, M. Valiev, H. J. J. van Dam, D. Wang, T. L. Windus,
        J. Hammond, J. Autschbach, K. Bhaskaran-Nair, J. Brabec, K. Lopata,
    S. A. Fischer, S. Krishnamoorthy, M. Jacquelin, W. Ma, M. Klemm, O. Villa,
      Y. Chen, V. Anisimov, F. Aquino, S. Hirata, M. T. Hackler, V. Konjkov,
            D. Mejia-Rodriguez, T. Risthaus, M. Malagoli, A. Marenich,
   A. Otero-de-la-Roza, J. Mullin, P. Nichols, R. Peverati, J. Pittner, Y. Zhao,
        P.-D. Fan, A. Fonari, M. J. Williamson, R. J. Harrison, J. R. Rehr,
      M. Dupuis, D. Silverstein, D. M. A. Smith, J. Nieplocha, V. Tipparaju,
    M. Krishnan, B. E. Van Kuiken, A. Vazquez-Mayagoitia, L. Jensen, M. Swart,
      Q. Wu, T. Van Voorhis, A. A. Auer, M. Nooijen, L. D. Crosby, E. Brown,
      G. Cisneros, G. I. Fann, H. Fruchtl, J. Garza, K. Hirao, R. A. Kendall,
      J. A. Nichols, K. Tsemekhman, K. Wolinski, J. Anchell, D. E. Bernholdt,
      P. Borowski, T. Clark, D. Clerc, H. Dachsel, M. J. O. Deegan, K. Dyall,
    D. Elwood, E. Glendening, M. Gutowski, A. C. Hess, J. Jaffe, B. G. Johnson,
     J. Ju, R. Kobayashi, R. Kutteh, Z. Lin, R. Littlefield, X. Long, B. Meng,
      T. Nakajima, S. Niu, L. Pollack, M. Rosing, K. Glaesemann, G. Sandrone,
      M. Stave, H. Taylor, G. Thomas, J. H. van Lenthe, A. T. Wong, Z. Zhang.

 Total times  cpu:       14.9s     wall:       16.9s
