 argument  1 = nwcn.nw
                                         
                                         


              Northwest Computational Chemistry Package (NWChem) 6.8
              ------------------------------------------------------


                    Environmental Molecular Sciences Laboratory
                       Pacific Northwest National Laboratory
                                Richland, WA 99352

                              Copyright (c) 1994-2018
                       Pacific Northwest National Laboratory
                            Battelle Memorial Institute

             NWChem is an open-source computational chemistry package
                        distributed under the terms of the
                      Educational Community License (ECL) 2.0
             A copy of the license is included with this distribution
                              in the LICENSE.TXT file

                                  ACKNOWLEDGMENT
                                  --------------

            This software and its documentation were developed at the
            EMSL at Pacific Northwest National Laboratory, a multiprogram
            national laboratory, operated for the U.S. Department of Energy
            by Battelle under Contract Number DE-AC05-76RL01830. Support
            for this work was provided by the Department of Energy Office
            of Biological and Environmental Research, Office of Basic
            Energy Sciences, and the Office of Advanced Scientific Computing.


           Job information
           ---------------

    hostname        = r03n29.localdomain.hpc.udel.edu
    program         = nwchem
    date            = Wed Jul 29 18:55:46 2020

    compiled        = Mon_Jun_22_16:48:09_2020
    source          = /opt/shared/nwchem/6.8.1/src
    nwchem branch   = Development
    nwchem revision = N/A
    ga revision     = 5.6.5
    use scalapack   = F
    input           = nwcn.nw
    prefix          = nwcn.
    data base       = /work/akanane/users/akanane/Relativistic/GA/parallel/ccpvtz/nwcn.db
    status          = startup
    nproc           =        1
    time left       =     -1s



           Memory information
           ------------------

    heap     = 1048576000 doubles =   8000.0 Mbytes
    stack    = 1048575997 doubles =   8000.0 Mbytes
    global   = 2097152000 doubles =  16000.0 Mbytes (distinct from heap & stack)
    total    = 4194303997 doubles =  32000.0 Mbytes
    verify   = yes
    hardfail = no 


           Directory information
           ---------------------

  0 permanent = /work/akanane/users/akanane/Relativistic/GA/parallel/ccpvtz
  0 scratch   = /lustre/scratch/akanane/nwchem/3




                                NWChem Input Module
                                -------------------


  library name resolved from: environment
  library file name is: </opt/shared/nwchem/6.8.1/data/libraries/>
  
                      Basis "ao basis" -> "" (spherical)
                      -----
  At (Astatine)
  -------------
            Exponent  Coefficients 
       -------------- ---------------------------------------------------------
  1 S  2.36771558E+03  1.000000

  2 S  3.61920607E+02  1.000000

  3 S  4.01919470E+01  1.000000

  4 S  2.46860618E+01  1.000000

  5 S  1.41417027E+01  1.000000

  6 S  6.25091140E+00  1.000000

  7 S  2.16739250E+00  1.000000

  8 S  1.05855680E+00  1.000000

  9 S  3.67609200E-01  1.000000

 10 S  1.78507500E-01  1.000000

 11 S  8.34652000E-02  1.000000

 12 S  9.55903000E-02  1.000000

 13 P  1.93087701E+01  1.000000

 14 P  1.08048736E+01  1.000000

 15 P  6.58845750E+00  1.000000

 16 P  2.62670560E+00  1.000000

 17 P  1.33541610E+00  1.000000

 18 P  6.61448500E-01  1.000000

 19 P  3.34258600E-01  1.000000

 20 P  1.50195300E-01  1.000000

 21 P  5.87410000E-02  1.000000

 22 P  5.79391300E-01  1.000000

 23 P  9.25405000E-02  1.000000

 24 D  7.10789685E+01  1.000000

 25 D  1.65499557E+01  1.000000

 26 D  6.47062210E+00  1.000000

 27 D  2.85097370E+00  1.000000

 28 D  1.61246640E+00  1.000000

 29 D  8.43802200E-01  1.000000

 30 D  4.06771900E-01  1.000000

 31 D  1.67896300E-01  1.000000

 32 F  3.72539500E-01  1.000000



 Summary of "ao basis" -> "" (spherical)
 ------------------------------------------------------------------------------
       Tag                 Description            Shells   Functions and Types
 ---------------- ------------------------------  ------  ---------------------
 At                      user specified             32       92   12s11p8d1f


  library name resolved from: environment
  library file name is: </opt/shared/nwchem/6.8.1/data/libraries/>
  
                 ECP       "ecp basis" -> "" (cartesian)
                -----
  At (Astatine) Replaces    60 electrons
  --------------------------------------
             Channel    R-exponent     Exponent     Coefficients
         ------------ ---------------------------------------------------------
  1 U L       Both         0.00      525.754846      -0.173059
  1 U L       Both         1.00     2395.715850      -2.276906
  1 U L       Both         1.00      278.392187      -3.857969
  1 U L       Both         1.00       61.458962     -36.770662
  1 U L       Both         1.00       44.129376      37.601009
  1 U L       Both         1.00       31.359815     -23.238699
  1 U L       Both         1.00       11.620573     -16.176532
  1 U L       Both         1.00        4.446625      -3.261971
  1 U L       Both         1.00        2.935632       0.180132
  1 U L       Both         1.00        1.910251      -0.146253
  1 U L       Both         1.00        0.178868      -0.000306
  1 U L       Both         1.00        0.018768      -0.000022
  1 U L       Both         1.00        0.009761      -0.000001

  2 U-s       Both         0.00       78.594234      10.173059
  2 U-s       Both         1.00       20.707609      53.132769
  2 U-s       Both         2.00       45.167107     915.704248
  2 U-s       Both         2.00       30.243749   -1411.543382
  2 U-s       Both         2.00       20.306371    1849.067583
  2 U-s       Both         2.00       13.560689   -1518.357864
  2 U-s       Both         2.00        8.557058    1106.328043
  2 U-s       Both         2.00        5.419636    -461.892244
  2 U-s       Both         2.00        3.516909     198.105995
  2 U-s       Both         2.00        2.287714     -81.896353
  2 U-s       Both         2.00        1.492833      32.227905
  2 U-s       Both         2.00        0.974359     -11.458592
  2 U-s       Both         2.00        0.633560       3.370887
  2 U-s       Both         2.00        0.410317      -0.726005
  2 U-s       Both         2.00        0.263860       0.084087

  3 U-p       Both         0.00       77.044856       9.173059
  3 U-p       Both         1.00      208.029432     -11.921411
  3 U-p       Both         1.00       28.036479      67.690912
  3 U-p       Both         2.00       39.868030     362.644345
  3 U-p       Both         2.00       26.002305    -582.208229
  3 U-p       Both         2.00       15.965542    1135.430155
  3 U-p       Both         2.00       11.089072   -1255.187511
  3 U-p       Both         2.00        8.084023     873.528658
  3 U-p       Both         2.00        5.150690    -147.543640
  3 U-p       Both         2.00        2.818771      20.737280
  3 U-p       Both         2.00        1.590819      -4.949674
  3 U-p       Both         2.00        0.878982       1.224799
  3 U-p       Both         2.00        0.479414      -0.318322
  3 U-p       Both         2.00        0.264399       0.075196
  3 U-p       Both         2.00        0.157424      -0.011770

  4 U-d       Both         0.00       30.117728       7.173059
  4 U-d       Both         1.00        9.540744     223.203571
  4 U-d       Both         1.00        5.932081    -532.676982
  4 U-d       Both         1.00        3.279986     364.117347
  4 U-d       Both         2.00        6.384402     470.098427
  4 U-d       Both         2.00        3.591978    -476.290215
  4 U-d       Both         2.00        1.790367       1.447964
  4 U-d       Both         2.00        0.921766      -0.463077
  4 U-d       Both         2.00        0.485962       0.163733
  4 U-d       Both         2.00        0.266420      -0.069600
  4 U-d       Both         2.00        0.150370       0.031881
  4 U-d       Both         2.00        0.090090      -0.013071
  4 U-d       Both         2.00        0.051240       0.003831
  4 U-d       Both         2.00        0.029281      -0.000895
  4 U-d       Both         2.00        0.016722       0.000119

  5 U-f       Both         0.00        0.891112       4.173059
  5 U-f       Both         1.00       18.356496      62.551914
  5 U-f       Both         2.00    32873.554569    1035.415119
  5 U-f       Both         2.00     3063.446789     192.725071
  5 U-f       Both         2.00       31.894642    -183.984679
  5 U-f       Both         2.00        4.214026      69.570454
  5 U-f       Both         2.00        1.887936    -131.986631
  5 U-f       Both         2.00        1.332761     223.444177
  5 U-f       Both         2.00        0.873304    -167.865396
  5 U-f       Both         2.00        0.632167      71.630825
  5 U-f       Both         2.00        0.438045     -11.215886
  5 U-f       Both         2.00        0.261926       0.470906
  5 U-f       Both         2.00        0.174510       0.000847

  library name resolved from: environment
  library file name is: </opt/shared/nwchem/6.8.1/data/libraries/>
  

 **** WARNING Zero Coefficient **** on atom "              At"
 angular momentum value: 1  standard basis set name: "user specified"
 input line that generated warning:
   154: 0	7.704485637704510E+01		0.000000000000000E+00
  

 **** WARNING Zero Coefficient **** on atom "              At"
 angular momentum value: 2  standard basis set name: "user specified"
 input line that generated warning:
   170: 0	3.011772828438610E+01		0.000000000000000E+00
  

 **** WARNING Zero Coefficient **** on atom "              At"
 angular momentum value: 3  standard basis set name: "user specified"
 input line that generated warning:
   186: 0	8.911119625038520E-01		0.000000000000000E+00
  

 **** WARNING Zero Coefficient **** on atom "              At"
 angular momentum value: 4  standard basis set name: "user specified"
 input line that generated warning:
   200: 0	5.257548462769590E+02		0.000000000000000E+00
  
             SO Potential "so potential" -> ""
                      -----
  At (Astatine)
  -------------
          R-exponent    Exponent     Coefficients 
         ------------ ------------------------------------------------------------
  1 U-p      1.00      208.029432       2.561177
  1 U-p      1.00       28.036479      -1.650544
  1 U-p      2.00       39.868030      77.307362
  1 U-p      2.00       26.002305    -118.585980
  1 U-p      2.00       15.965542     138.579485
  1 U-p      2.00       11.089072     -52.715330
  1 U-p      2.00        8.084023     -58.916702
  1 U-p      2.00        5.150690      62.873440
  1 U-p      2.00        2.818771     -15.889430
  1 U-p      2.00        1.590819       4.843922
  1 U-p      2.00        0.878982      -1.405982
  1 U-p      2.00        0.479414       0.390801
  1 U-p      2.00        0.264399      -0.095951
  1 U-p      2.00        0.157424       0.015456

  2 U-d      1.00        9.540744       1.612834
  2 U-d      1.00        5.932081      -1.350383
  2 U-d      1.00        3.279986      -0.287663
  2 U-d      2.00        6.384402      -1.664264
  2 U-d      2.00        3.591978       4.036069
  2 U-d      2.00        1.790367      -0.890782
  2 U-d      2.00        0.921766       0.301059
  2 U-d      2.00        0.485962      -0.123316
  2 U-d      2.00        0.266420       0.057045
  2 U-d      2.00        0.150370      -0.027051
  2 U-d      2.00        0.090090       0.011366
  2 U-d      2.00        0.051240      -0.003367
  2 U-d      2.00        0.029281       0.000795
  2 U-d      2.00        0.016722      -0.000104

  3 U-f      1.00       18.356496      -0.000643
  3 U-f      2.00    32873.554569       0.834481
  3 U-f      2.00     3063.446789       0.273486
  3 U-f      2.00       31.894642       0.160633
  3 U-f      2.00        4.214026      -0.068824
  3 U-f      2.00        1.887936       0.022494
  3 U-f      2.00        1.332761      -0.174753
  3 U-f      2.00        0.873304       0.160803
  3 U-f      2.00        0.632167       0.036072
  3 U-f      2.00        0.438045      -0.065269
  3 U-f      2.00        0.261926       0.016437
  3 U-f      2.00        0.174510      -0.002626

  4 U-g      1.00     2395.715850      -1.527919
  4 U-g      1.00      278.392187      -3.033005
  4 U-g      1.00       61.458962       2.574144
  4 U-g      1.00       44.129376      -2.630667
  4 U-g      1.00       31.359815       1.110494
  4 U-g      1.00       11.620573      -0.051219
  4 U-g      1.00        4.446625       0.042132
  4 U-g      1.00        2.935632      -0.036158
  4 U-g      1.00        1.910251       0.008870
  4 U-g      1.00        0.178868       0.000099
  4 U-g      1.00        0.018768       0.000004
  4 U-g      1.00        0.009761      -0.000000

                                        At-
                                        ---

 Scaling coordinates for geometry "geometry" by  1.889725989
 (inverse scale =  0.529177249)



                             Geometry "geometry" -> ""
                             -------------------------

 Output coordinates in angstroms (scale by  1.889725989 to convert to a.u.)

  No.       Tag          Charge          X              Y              Z
 ---- ---------------- ---------- -------------- -------------- --------------
    1 At                  85.0000     0.00000000     0.00000000     0.00000000

      Atomic Mass 
      ----------- 

      At               210.987500


 Effective nuclear repulsion energy (a.u.)       0.0000000000

            Nuclear Dipole moment (a.u.) 
            ----------------------------
        X                 Y               Z
 ---------------- ---------------- ----------------
     0.0000000000     0.0000000000     0.0000000000


            XYZ format geometry
            -------------------
     1
 geometry
 At                    0.00000000     0.00000000     0.00000000

  xc_inp: hfexch multiplicative factor not found.

                                 NWChem DFT Module
                                 -----------------


                                        At-




 Summary of "ao basis" -> "ao basis" (spherical)
 ------------------------------------------------------------------------------
       Tag                 Description            Shells   Functions and Types
 ---------------- ------------------------------  ------  ---------------------
 At                      user specified             32       92   12s11p8d1f


  Caching 1-el integrals 

            General Information
            -------------------
          SCF calculation type: DFT
          Wavefunction type:  spin polarized.
          No. of atoms     :     1
          No. of electrons :    26
           Alpha electrons :    13
            Beta electrons :    13
          Charge           :    -1
          Spin multiplicity:     1
          Use of symmetry is: off; symmetry adaption is: off
          Maximum number of iterations: 100
          AO basis - number of functions:    92
                     number of shells:    32
          Convergence on energy requested:  1.00D-06
          Convergence on density requested:  5.00D-06
          Convergence on gradient requested:  5.00D-06

              XC Information
              --------------
                     Hartree-Fock (Exact) Exchange  1.000          

          Convergence Information
          -----------------------
          Convergence aids based upon iterative change in 
          total energy or number of iterations. 
          Levelshifting, if invoked, occurs when the 
          HOMO/LUMO gap drops below (HL_TOL):  1.00D-02
          DIIS, if invoked, will attempt to extrapolate 
          using up to (NFOCK): 10 stored Fock matrices.

                    Damping( 0%)  Levelshifting(0.5)       DIIS
                  --------------- ------------------- ---------------
          dE  on:    start            ASAP                start   
          dE off:    2 iters        100 iters           100 iters 


      Screening Tolerance Information
      -------------------------------
          Density screening/tol_rho:  1.00D-10
          AO Gaussian exp screening on grid/accAOfunc:  14
          CD Gaussian exp screening on grid/accCDfunc:  20
          XC Gaussian exp screening on grid/accXCfunc:  20
          Schwarz screening/accCoul:  1.00D-10

 Performing spin-orbit DFT (SO-DFT) calculations
 -----------------------------------------------


      Superposition of Atomic Density Guess
      -------------------------------------

 Sum of atomic energies:        -302.61999151

 Renormalizing density from      25.00 to     26

      Non-variational initial energy
      ------------------------------

 Total energy =    -263.901734
 1-e energy   =    -472.625085
 2-e energy   =     208.723351
 HOMO         =       0.045636
 LUMO         =       0.301962

   Time prior to 1st pass:      0.4

 Integral file          = /lustre/scratch/akanane/nwchem/3/nwcn.aoints.0
 Record size in doubles =    65536    No. of integs per rec  =    43688
 Max. records in memory =      287    Max. records in file   = ********
 No. of bits per label  =        8    No. of bits per value  =       64


 #quartets = 1.396D+05 #integrals = 1.092D+06 #direct =  0.0% #cached =100.0%


           Memory utilization after 1st SCF pass: 
           Heap Space remaining (MW):     1029.75          1029745176
          Stack Space remaining (MW):     1048.51          1048505700

   convergence    iter        energy       DeltaE   RMS-Dens  Diis-err    time
 ---------------- ----- ----------------- --------- --------- ---------  ------
 d= 0,ls=0.0,diis     1   -261.5186547726 -2.62D+02  2.61D-02  7.55D+00     0.7
                                                     2.61D-02  7.55D+00
 d= 0,ls=0.0,diis     2   -261.9469425953 -4.28D-01  7.90D-03  4.86D-01     0.9
                                                     7.90D-03  4.86D-01
 d= 0,ls=0.0,diis     3   -261.9946146710 -4.77D-02  2.65D-03  7.39D-02     1.0
                                                     2.65D-03  7.39D-02
 d= 0,ls=0.0,diis     4   -262.0030881207 -8.47D-03  2.64D-04  2.12D-04     1.2
                                                     2.64D-04  2.12D-04
 d= 0,ls=0.0,diis     5   -262.0033008691 -2.13D-04  2.07D-04  1.68D-05     1.4
                                                     2.07D-04  1.68D-05
 d= 0,ls=0.0,diis     6   -262.0033213941 -2.05D-05  5.88D-05  5.77D-07     1.5
                                                     5.88D-05  5.77D-07
 d= 0,ls=0.0,diis     7   -262.0033217897 -3.96D-07  1.48D-05  4.18D-09     1.7
                                                     1.48D-05  4.18D-09
 d= 0,ls=0.0,diis     8   -262.0033217927 -2.96D-09  2.44D-06  6.62D-11     1.9
                                                     2.44D-06  6.62D-11


      Total SO-DFT energy =     -262.003321792721
      One electron energy =     -461.699313283686
           Coulomb energy =      218.141028831651
    Exchange-Corr. energy =      -18.445037340686
 Nuclear repulsion energy =        0.000000000000

 Numeric. integr. density =        0.000000000000

     Total iterative time =      1.6s



                       DFT Final Molecular Orbital Analysis
                       ------------------------------------

 Vector    1  Occ=1.000000D+00  E=-7.635955D+00
              MO Center= -3.2D-13, -2.1D-13, -1.2D-12, r^2= 8.1D-02
  Bfn.         Coefficient        Function           Bfn.         Coefficient        Function  
  ----     -------------------  ------------         ----     -------------------  ------------
    98    -0.689685   0.453226  1 At s                 99     0.652315  -0.428669  1 At s          
     6     0.686309   0.171579  1 At s                  7    -0.649122  -0.162282  1 At s          
   100     0.328784  -0.216060  1 At s                  8    -0.327174  -0.081794  1 At s          
    97     0.259296  -0.170396  1 At s                  5    -0.258026  -0.064507  1 At s          
    96    -0.091340   0.060024  1 At s                  4     0.090893   0.022723  1 At s          

 Vector    2  Occ=1.000000D+00  E=-7.635955D+00
              MO Center=  4.8D-15, -1.6D-15,  1.7D-16, r^2= 6.4D-03
  Bfn.         Coefficient        Function           Bfn.         Coefficient        Function  
  ----     -------------------  ------------         ----     -------------------  ------------
     6     0.193298  -0.802319  1 At s                  7    -0.182824   0.758846  1 At s          
    98    -0.393556  -0.587854  1 At s                 99     0.372232   0.556002  1 At s          
     8    -0.092148   0.382478  1 At s                100     0.187614   0.280239  1 At s          
     5    -0.072673   0.301642  1 At s                 97     0.147962   0.221011  1 At s          
     4     0.025600  -0.106257  1 At s                 96    -0.052122  -0.077854  1 At s          

 Vector    3  Occ=1.000000D+00  E=-5.669494D+00
              MO Center=  4.7D-13,  3.8D-13,  1.0D-12, r^2= 5.8D-02
  Bfn.         Coefficient        Function           Bfn.         Coefficient        Function  
  ----     -------------------  ------------         ----     -------------------  ------------
   120    -0.404662   0.236572  1 At px                30    -0.404662   0.236572  1 At pz         
   121    -0.236572  -0.404662  1 At py               114    -0.370084   0.216357  1 At px         
   115    -0.216357  -0.370084  1 At py                24    -0.370084   0.216357  1 At pz         
   132     0.368221  -0.215268  1 At px                42     0.368221  -0.215268  1 At pz         
   133     0.215268   0.368221  1 At py               111     0.174988  -0.102301  1 At px         

 Vector    4  Occ=1.000000D+00  E=-5.669494D+00
              MO Center= -3.4D-14, -2.0D-14,  2.4D-15, r^2= 7.2D-02
  Bfn.         Coefficient        Function           Bfn.         Coefficient        Function  
  ----     -------------------  ------------         ----     -------------------  ------------
    28    -0.461573  -0.081659  1 At px                29    -0.081659   0.461573  1 At py         
   122     0.461573   0.081659  1 At pz                22    -0.422132  -0.074681  1 At px         
    23    -0.074681   0.422132  1 At py               116     0.422132   0.074681  1 At pz         
    40     0.420006   0.074305  1 At px                41     0.074305  -0.420006  1 At py         
   134    -0.420006  -0.074305  1 At pz                19     0.199598   0.035312  1 At px         

 Vector    5  Occ=1.000000D+00  E=-4.528690D+00
              MO Center=  1.2D-15,  1.6D-15,  2.3D-15, r^2= 4.8D-02
  Bfn.         Coefficient        Function           Bfn.         Coefficient        Function  
  ----     -------------------  ------------         ----     -------------------  ------------
   119     0.105291   0.383544  1 At pz                25    -0.174649   0.267592  1 At px         
    26     0.115952  -0.279940  1 At py               116     0.070589   0.257134  1 At pz         
   113    -0.066741  -0.243118  1 At pz               134     0.058993   0.214895  1 At pz         
   117    -0.216099   0.025839  1 At px                27     0.188637  -0.104905  1 At pz         
    22    -0.117088   0.179398  1 At px                23     0.077736  -0.187676  1 At py         

 Vector    6  Occ=1.000000D+00  E=-4.528690D+00
              MO Center=  6.9D-15, -1.5D-14, -4.3D-14, r^2= 8.9D-02
  Bfn.         Coefficient        Function           Bfn.         Coefficient        Function  
  ----     -------------------  ------------         ----     -------------------  ------------
   118     0.271397  -0.349723  1 At py                27     0.373530  -0.027048  1 At pz         
   117    -0.023807   0.298444  1 At px               115     0.181949  -0.234460  1 At py         
   112    -0.172031   0.221679  1 At py                24     0.250420  -0.018133  1 At pz         
   133     0.152060  -0.195945  1 At py                21    -0.236770   0.017145  1 At pz         
    42     0.209284  -0.015154  1 At pz               114    -0.015961   0.200082  1 At px         

 Vector    7  Occ=1.000000D+00  E=-4.528690D+00
              MO Center=  6.5D-15,  1.6D-15,  2.2D-15, r^2= 3.3D-02
  Bfn.         Coefficient        Function           Bfn.         Coefficient        Function  
  ----     -------------------  ------------         ----     -------------------  ------------
    26    -0.204759   0.335561  1 At py                25     0.028102   0.376679  1 At px         
   119    -0.307460   0.171920  1 At pz                23    -0.137274   0.224966  1 At py         
    22     0.018840   0.252532  1 At px                20     0.129791  -0.212703  1 At py         
    19    -0.017813  -0.238766  1 At px               116    -0.206126   0.115258  1 At pz         
   113     0.194890  -0.108975  1 At pz                41    -0.114724   0.188011  1 At py         

 Vector    8  Occ=1.000000D+00  E=-4.528690D+00
              MO Center=  3.1D-13, -1.4D-14,  3.9D-13, r^2= 6.7D-02
  Bfn.         Coefficient        Function           Bfn.         Coefficient        Function  
  ----     -------------------  ------------         ----     -------------------  ------------
   117    -0.379520  -0.130964  1 At px                27     0.267163  -0.151067  1 At pz         
   118    -0.282031   0.112357  1 At py               114    -0.254436  -0.087800  1 At px         
   111     0.240567   0.083014  1 At px               132    -0.212640  -0.073377  1 At px         
    25     0.197304  -0.103072  1 At px                24     0.179110  -0.101278  1 At pz         
   115    -0.189078   0.075326  1 At py                26    -0.030180   0.193094  1 At py         

 Vector    9  Occ=1.000000D+00  E=-1.640526D+00
              MO Center= -1.1D-14,  9.7D-15,  4.4D-15, r^2= 9.7D-02
  Bfn.         Coefficient        Function           Bfn.         Coefficient        Function  
  ----     -------------------  ------------         ----     -------------------  ------------
   161     0.022429  -0.176305  1 At d  1             160    -0.130590   0.110913  1 At d  0       
    68    -0.049840   0.155483  1 At d  0              67    -0.119022  -0.098016  1 At d -1       
   166     0.018875  -0.148369  1 At d  1              69    -0.128173   0.073085  1 At d  1       
   165    -0.109898   0.093338  1 At d  0              73    -0.041942   0.130847  1 At d  0       
    72    -0.100163  -0.082485  1 At d -1             156     0.015838  -0.124497  1 At d  1       

 Vector   10  Occ=1.000000D+00  E=-1.640526D+00
              MO Center= -5.6D-15,  4.4D-15,  9.0D-15, r^2= 6.5D-02
  Bfn.         Coefficient        Function           Bfn.         Coefficient        Function  
  ----     -------------------  ------------         ----     -------------------  ------------
   159    -0.167241   0.124798  1 At d -1              68     0.082031   0.175672  1 At d  0       
   164    -0.140742   0.105023  1 At d -1              73     0.069033   0.147836  1 At d  0       
   154    -0.118097   0.088126  1 At d -1             161    -0.017283  -0.137031  1 At d  1       
    63     0.057926   0.124051  1 At d  0              69     0.059762  -0.112975  1 At d  1       
   166    -0.014545  -0.115318  1 At d  1             160     0.035789  -0.106162  1 At d  0       

 Vector   11  Occ=1.000000D+00  E=-1.640526D+00
              MO Center=  1.9D-14, -1.4D-14, -2.1D-15, r^2= 1.2D-01
  Bfn.         Coefficient        Function           Bfn.         Coefficient        Function  
  ----     -------------------  ------------         ----     -------------------  ------------
    70     0.038256   0.183642  1 At d  2              66     0.183642  -0.038256  1 At d -2       
    67    -0.107315  -0.133576  1 At d -1              75     0.032194   0.154544  1 At d  2       
    71     0.154544  -0.032194  1 At d -2              72    -0.090311  -0.112410  1 At d -1       
   160    -0.110750   0.081708  1 At d  0              65     0.027014   0.129679  1 At d  2       
    61     0.129679  -0.027014  1 At d -2             161    -0.007779   0.126238  1 At d  1       

 Vector   12  Occ=1.000000D+00  E=-1.640526D+00
              MO Center= -2.3D-13, -4.9D-14,  1.9D-14, r^2= 1.0D-01
  Bfn.         Coefficient        Function           Bfn.         Coefficient        Function  
  ----     -------------------  ------------         ----     -------------------  ------------
   162     0.180518  -0.126443  1 At d  2             158     0.126443   0.180518  1 At d -2       
   167     0.151914  -0.106408  1 At d  2             163     0.106408   0.151914  1 At d -2       
    69    -0.154871   0.032257  1 At d  1             157     0.127472  -0.089287  1 At d  2       
   153     0.089287   0.127472  1 At d -2              74    -0.130332   0.027146  1 At d  1       
    64    -0.109362   0.022778  1 At d  1              70     0.059120   0.088764  1 At d  2       

 Vector   13  Occ=1.000000D+00  E=-1.485946D+00
              MO Center= -1.3D-14,  3.3D-15,  3.5D-15, r^2= 9.4D-02
  Bfn.         Coefficient        Function           Bfn.         Coefficient        Function  
  ----     -------------------  ------------         ----     -------------------  ------------
   160    -0.224204  -0.072901  1 At d  0             165    -0.183583  -0.059693  1 At d  0       
    67     0.035165   0.184891  1 At d -1              70     0.087421   0.154604  1 At d  2       
    66    -0.161259   0.025891  1 At d -2              72     0.028794   0.151393  1 At d -1       
    75     0.071582   0.126594  1 At d  2              69     0.073997   0.119344  1 At d  1       
    71    -0.132042   0.021200  1 At d -2             155    -0.120459  -0.039168  1 At d  0       

 Vector   14  Occ=1.000000D+00  E=-1.485946D+00
              MO Center= -6.0D-15,  2.0D-15, -5.7D-15, r^2= 1.3D-01
  Bfn.         Coefficient        Function           Bfn.         Coefficient        Function  
  ----     -------------------  ------------         ----     -------------------  ------------
   158    -0.189531  -0.025172  1 At d -2             161     0.035984  -0.169554  1 At d  1       
    69     0.114433   0.125515  1 At d  1             163    -0.155192  -0.020611  1 At d -2       
    67     0.141493  -0.044260  1 At d -1             166     0.029465  -0.138835  1 At d  1       
    66     0.099402  -0.099847  1 At d -2              74     0.093701   0.102774  1 At d  1       
    70    -0.118247   0.041950  1 At d  2              72     0.115858  -0.036241  1 At d -1       

 Vector   15  Occ=1.000000D+00  E=-1.485946D+00
              MO Center= -6.3D-16,  9.9D-15,  6.4D-15, r^2= 1.2D-01
  Bfn.         Coefficient        Function           Bfn.         Coefficient        Function  
  ----     -------------------  ------------         ----     -------------------  ------------
    68     0.168415  -0.217127  1 At d  0              73     0.137902  -0.177789  1 At d  0       
   159    -0.106353  -0.155660  1 At d -1             164    -0.087084  -0.127458  1 At d -1       
   161     0.038810  -0.144364  1 At d  1              63     0.090485  -0.116657  1 At d  0       
   166     0.031778  -0.118208  1 At d  1              67    -0.097920   0.053690  1 At d -1       
    70     0.085840  -0.067281  1 At d  2             154    -0.057141  -0.083632  1 At d -1       

 Vector   16  Occ=1.000000D+00  E=-1.485946D+00
              MO Center=  3.0D-13,  1.1D-14,  2.4D-13, r^2= 4.1D-02
  Bfn.         Coefficient        Function           Bfn.         Coefficient        Function  
  ----     -------------------  ------------         ----     -------------------  ------------
   162     0.267142   0.120496  1 At d  2             167     0.218742   0.098665  1 At d  2       
   158     0.178367  -0.158286  1 At d -2             163     0.146051  -0.129608  1 At d -2       
   157     0.143529   0.064740  1 At d  2             153     0.095832  -0.085043  1 At d -2       
    67    -0.051285  -0.115884  1 At d -1              69     0.101828  -0.064455  1 At d  1       
    72    -0.041994  -0.094889  1 At d -1              74     0.083379  -0.052777  1 At d  1       

 Vector   17  Occ=1.000000D+00  E=-1.485946D+00
              MO Center= -2.2D-14, -1.3D-15,  9.6D-15, r^2= 1.3D-01
  Bfn.         Coefficient        Function           Bfn.         Coefficient        Function  
  ----     -------------------  ------------         ----     -------------------  ------------
   160    -0.082502   0.170002  1 At d  0              70    -0.180652   0.052806  1 At d  2       
    66    -0.070498  -0.150354  1 At d -2              69    -0.032526  -0.153612  1 At d  1       
   165    -0.067555   0.139201  1 At d  0              75    -0.147922   0.043238  1 At d  2       
    68     0.138618   0.050530  1 At d  0              71    -0.057726  -0.123114  1 At d -2       
    67     0.042690   0.127792  1 At d -1              74    -0.026633  -0.125781  1 At d  1       

 Vector   18  Occ=1.000000D+00  E=-1.485946D+00
              MO Center=  3.3D-15,  1.4D-15, -5.6D-15, r^2= 4.2D-02
  Bfn.         Coefficient        Function           Bfn.         Coefficient        Function  
  ----     -------------------  ------------         ----     -------------------  ------------
   159     0.133847   0.204193  1 At d -1             164     0.109597   0.167198  1 At d -1       
   161     0.101547  -0.162769  1 At d  1             166     0.083149  -0.133279  1 At d  1       
    66     0.035804   0.150787  1 At d -2              69     0.048306  -0.128378  1 At d  1       
   154     0.071913   0.109708  1 At d -1              71     0.029317   0.123468  1 At d -2       
    70    -0.002083   0.112504  1 At d  2              74     0.039554  -0.105119  1 At d  1       

 Vector   19  Occ=1.000000D+00  E=-6.798740D-01
              MO Center= -3.6D-15,  4.1D-15,  2.7D-15, r^2= 1.2D-06
  Bfn.         Coefficient        Function           Bfn.         Coefficient        Function  
  ----     -------------------  ------------         ----     -------------------  ------------
     7     0.000676  -0.609402  1 At s                  9    -0.000571   0.514802  1 At s          
    10    -0.000517   0.466078  1 At s                  6    -0.000486   0.438454  1 At s          
    99    -0.387152   0.110879  1 At s                  8     0.000413  -0.371996  1 At s          
   101     0.327053  -0.093667  1 At s                102     0.296099  -0.084801  1 At s          
    98     0.278550  -0.079775  1 At s                 11    -0.000301   0.271079  1 At s          

 Vector   20  Occ=1.000000D+00  E=-6.798740D-01
              MO Center=  2.0D-13,  7.6D-13,  8.4D-13, r^2= 3.1D-02
  Bfn.         Coefficient        Function           Bfn.         Coefficient        Function  
  ----     -------------------  ------------         ----     -------------------  ------------
    99    -0.609402   0.000297  1 At s                101     0.514803  -0.000251  1 At s          
   102     0.466078  -0.000227  1 At s                 98     0.438455  -0.000214  1 At s          
     7    -0.111119   0.387083  1 At s                100    -0.371996   0.000181  1 At s          
     9     0.093870  -0.326995  1 At s                 10     0.084985  -0.296046  1 At s          
     6     0.079948  -0.278500  1 At s                103     0.271079  -0.000132  1 At s          

 Vector   21  Occ=1.000000D+00  E=-2.072082D-01
              MO Center= -2.0D-12, -7.9D-13, -1.4D-12, r^2= 2.5D-01
  Bfn.         Coefficient        Function           Bfn.         Coefficient        Function  
  ----     -------------------  ------------         ----     -------------------  ------------
   126     0.122056  -0.231788  1 At px               127     0.231788   0.122056  1 At py         
    36     0.122056  -0.231788  1 At pz               132     0.098229  -0.186540  1 At px         
   133     0.186540   0.098229  1 At py                42     0.098229  -0.186540  1 At pz         
    33     0.089148  -0.169295  1 At pz               124     0.169295   0.089148  1 At py         
   123     0.089148  -0.169295  1 At px               115    -0.163304  -0.085993  1 At py         

 Vector   22  Occ=1.000000D+00  E=-2.072082D-01
              MO Center=  1.4D-13, -1.8D-13, -2.1D-13, r^2= 5.4D-01
  Bfn.         Coefficient        Function           Bfn.         Coefficient        Function  
  ----     -------------------  ------------         ----     -------------------  ------------
   128    -0.216466  -0.147532  1 At pz                34     0.216466   0.147532  1 At px         
    35     0.147532  -0.216466  1 At py               134    -0.174209  -0.118732  1 At pz         
    40     0.174209   0.118732  1 At px                41     0.118732  -0.174209  1 At py         
    32     0.107756  -0.158104  1 At py                31     0.158104   0.107756  1 At px         
   125    -0.158104  -0.107756  1 At pz               116     0.152509   0.103943  1 At pz         

 Vector   23  Occ=1.000000D+00  E=-8.242927D-02
              MO Center=  5.6D-13, -8.2D-13, -4.0D-13, r^2= 9.2D-01
  Bfn.         Coefficient        Function           Bfn.         Coefficient        Function  
  ----     -------------------  ------------         ----     -------------------  ------------
    34    -0.203192  -0.389994  1 At px                37    -0.169048  -0.324461  1 At px         
   127     0.175377  -0.205851  1 At py               128    -0.160323  -0.164800  1 At pz         
    35     0.225194  -0.042868  1 At py               130     0.145907  -0.171260  1 At py         
    36     0.200526   0.097388  1 At pz                43     0.090641   0.173972  1 At px         
   131    -0.133383  -0.137108  1 At pz                38     0.187353  -0.035665  1 At py         

 Vector   24  Occ=1.000000D+00  E=-8.242927D-02
              MO Center= -1.0D-12, -1.6D-13, -1.3D-12, r^2= 1.2D-01
  Bfn.         Coefficient        Function           Bfn.         Coefficient        Function  
  ----     -------------------  ------------         ----     -------------------  ------------
   127     0.405703  -0.135076  1 At py               126     0.260766   0.274433  1 At px         
   130     0.337530  -0.112378  1 At py               129     0.216948   0.228318  1 At px         
    34    -0.017546   0.198316  1 At px               136    -0.180980   0.060256  1 At py         
    36    -0.125690   0.131270  1 At pz               118    -0.162301   0.054037  1 At py         
   135    -0.116325  -0.122421  1 At px                37    -0.014597   0.164991  1 At px         

 Vector   25  Occ=1.000000D+00  E=-8.242927D-02
              MO Center=  8.2D-13, -8.3D-13,  9.2D-13, r^2= 1.5D+00
  Bfn.         Coefficient        Function           Bfn.         Coefficient        Function  
  ----     -------------------  ------------         ----     -------------------  ------------
    36     0.447874   0.033419  1 At pz                39     0.372614   0.027803  1 At pz         
   126    -0.352184   0.096355  1 At px               129    -0.293004   0.080164  1 At px         
    34     0.094452   0.184417  1 At px                45    -0.199791  -0.014908  1 At pz         
    27    -0.179171  -0.013369  1 At pz                42     0.173122   0.012918  1 At pz         
    37     0.078580   0.153428  1 At px               135     0.157105  -0.042983  1 At px         

 Vector   26  Occ=1.000000D+00  E=-8.242927D-02
              MO Center=  6.3D-14, -2.0D-12,  1.6D-13, r^2= 1.5D+00
  Bfn.         Coefficient        Function           Bfn.         Coefficient        Function  
  ----     -------------------  ------------         ----     -------------------  ------------
    35     0.461004  -0.078016  1 At py               128     0.159356   0.410123  1 At pz         
    38     0.383538  -0.064907  1 At py               131     0.132578   0.341207  1 At pz         
    44    -0.205649   0.034802  1 At py               137    -0.071087  -0.182951  1 At pz         
    26    -0.184423   0.031210  1 At py                41     0.178197  -0.030157  1 At py         
   119    -0.063750  -0.164068  1 At pz               134     0.061598   0.158529  1 At pz         

 Vector   27  Occ=0.000000D+00  E= 2.740310D-01
              MO Center= -2.3D-10,  2.0D-11, -5.2D-10, r^2= 3.4D+00
  Bfn.         Coefficient        Function           Bfn.         Coefficient        Function  
  ----     -------------------  ------------         ----     -------------------  ------------
   136     1.854439   3.400849  1 At py                45     3.400849  -1.854439  1 At pz         
   135     3.400849  -1.854439  1 At px               133    -1.714269  -3.143791  1 At py         
   132    -3.143791   1.714269  1 At px                42    -3.143791   1.714269  1 At pz         
   121     1.390867   2.550704  1 At py               120     2.550704  -1.390867  1 At px         
    30     2.550704  -1.390867  1 At pz               130    -1.211581  -2.221913  1 At py         

 Vector   28  Occ=0.000000D+00  E= 2.740310D-01
              MO Center= -9.4D-11, -1.0D-10,  4.9D-11, r^2= 4.1D+00
  Bfn.         Coefficient        Function           Bfn.         Coefficient        Function  
  ----     -------------------  ------------         ----     -------------------  ------------
    43    -2.651596  -2.823783  1 At px                44    -2.823783   2.651596  1 At py         
   137     2.651596   2.823783  1 At pz                40     2.451172   2.610344  1 At px         
    41     2.610344  -2.451172  1 At py               134    -2.451172  -2.610344  1 At pz         
    28    -1.988750  -2.117894  1 At px                29    -2.117894   1.988750  1 At py         
   122     1.988750   2.117894  1 At pz                37     1.732396   1.844893  1 At px         

 Vector   29  Occ=0.000000D+00  E= 2.816505D-01
              MO Center=  9.8D-11,  1.0D-10, -5.2D-11, r^2= 4.9D-02
  Bfn.         Coefficient        Function           Bfn.         Coefficient        Function  
  ----     -------------------  ------------         ----     -------------------  ------------
    12     2.115511  26.816132  1 At s                 11    -1.854446 -23.506873  1 At s          
    10    -0.389095  -4.932148  1 At s                104     2.422699  -4.004242  1 At s          
   103    -2.123725   3.510097  1 At s                  9     0.123722   1.568297  1 At s          
   102    -0.445594   0.736479  1 At s                  8    -0.038135  -0.483401  1 At s          
   101     0.141688  -0.234182  1 At s                  6     0.009735   0.123396  1 At s          

 Vector   30  Occ=0.000000D+00  E= 2.816505D-01
              MO Center=  2.7D-10, -3.4D-11,  6.3D-10, r^2= 1.6D-01
  Bfn.         Coefficient        Function           Bfn.         Coefficient        Function  
  ----     -------------------  ------------         ----     -------------------  ------------
   104   -26.893526  -0.564437  1 At s                103    23.574716   0.494782  1 At s          
   102     4.946382   0.103814  1 At s                 12    -3.857756   2.649745  1 At s          
    11     3.381687  -2.322752  1 At s                101    -1.572824  -0.033010  1 At s          
    10     0.709536  -0.487353  1 At s                100     0.484796   0.010175  1 At s          
     9    -0.225614   0.154966  1 At s                 98    -0.123752  -0.002597  1 At s          

 Vector   31  Occ=0.000000D+00  E= 2.908606D-01
              MO Center= -1.4D-11, -3.4D-12,  1.2D-12, r^2= 5.5D+00
  Bfn.         Coefficient        Function           Bfn.         Coefficient        Function  
  ----     -------------------  ------------         ----     -------------------  ------------
    44    -1.228504  -5.556291  1 At py                41     1.158774   5.240917  1 At py         
    43    -5.006108   0.408067  1 At px                40     4.721962  -0.384905  1 At px         
    29    -0.936627  -4.236184  1 At py                28    -3.816718   0.311115  1 At px         
    38     0.772614   3.494388  1 At py                35     0.734595   3.322432  1 At py         
    37     3.148374  -0.256636  1 At px                34     2.993445  -0.244007  1 At px         

 Vector   32  Occ=0.000000D+00  E= 2.908606D-01
              MO Center= -4.4D-11,  1.5D-11, -1.1D-10, r^2= 1.3D+00
  Bfn.         Coefficient        Function           Bfn.         Coefficient        Function  
  ----     -------------------  ------------         ----     -------------------  ------------
   135     6.111561  -0.259118  1 At px               132    -5.764670   0.244411  1 At px         
   120     4.659529  -0.197555  1 At px               129    -3.843600   0.162961  1 At px         
   136     0.526015  -3.751602  1 At py               126    -3.654460   0.154942  1 At px         
   133    -0.496159   3.538661  1 At py               121     0.401040  -2.860267  1 At py         
   123     2.537397  -0.107581  1 At px                45    -2.359959   0.785133  1 At pz         

 Vector   33  Occ=0.000000D+00  E= 2.908606D-01
              MO Center= -9.2D-13,  1.3D-12, -4.5D-12, r^2= 2.8D+00
  Bfn.         Coefficient        Function           Bfn.         Coefficient        Function  
  ----     -------------------  ------------         ----     -------------------  ------------
    45     3.507308  -4.108456  1 At pz                42    -3.308234   3.875261  1 At pz         
   136    -2.843657  -3.666523  1 At py               133     2.682252   3.458411  1 At py         
    30     2.674014  -3.132338  1 At pz               121    -2.168039  -2.795402  1 At py         
    39    -2.205769   2.583835  1 At pz                36    -2.097225   2.456687  1 At pz         
   130     1.788395   2.305900  1 At py               127     1.700389   2.192429  1 At py         

 Vector   34  Occ=0.000000D+00  E= 2.908606D-01
              MO Center= -2.2D-12,  1.6D-13,  1.2D-12, r^2= 3.3D+00
  Bfn.         Coefficient        Function           Bfn.         Coefficient        Function  
  ----     -------------------  ------------         ----     -------------------  ------------
   137     5.766347   0.576100  1 At pz               134    -5.439050  -0.543401  1 At pz         
   122     4.396334   0.439226  1 At pz               131    -3.626493  -0.362313  1 At pz         
    43     3.483965   0.840278  1 At px               128    -3.448037  -0.344484  1 At pz         
    40    -3.286216  -0.792584  1 At px                28     2.656218   0.640638  1 At px         
   125     2.394071   0.239185  1 At pz                45    -1.947796  -1.287827  1 At pz         

 Vector   35  Occ=0.000000D+00  E= 5.795445D-01
              MO Center=  4.7D-13,  1.7D-13, -5.4D-13, r^2= 1.1D+00
  Bfn.         Coefficient        Function           Bfn.         Coefficient        Function  
  ----     -------------------  ------------         ----     -------------------  ------------
    82    -0.515190   0.263239  1 At d -1             173    -0.378302   0.214577  1 At d -2       
   177     0.214577   0.378302  1 At d  2             175     0.180076   0.376477  1 At d  0       
   176    -0.400488   0.116768  1 At d  1              81     0.113783   0.394860  1 At d -2       
    85    -0.394860   0.113783  1 At d  2              83     0.234472  -0.069140  1 At d  0       
    77     0.178711  -0.091314  1 At d -1             168     0.131227  -0.074434  1 At d -2       

 Vector   36  Occ=0.000000D+00  E= 5.795445D-01
              MO Center=  1.6D-13, -2.2D-13,  3.3D-15, r^2= 6.0D-01
  Bfn.         Coefficient        Function           Bfn.         Coefficient        Function  
  ----     -------------------  ------------         ----     -------------------  ------------
   176     0.013963  -0.506308  1 At d  1              85     0.009996  -0.497350  1 At d  2       
    81    -0.497350  -0.009996  1 At d -2             177     0.466475  -0.035298  1 At d  2       
   173     0.035298   0.466475  1 At d -2              82     0.095507   0.380577  1 At d -1       
    83    -0.010351   0.297489  1 At d  0             175     0.170133  -0.089902  1 At d  0       
   171    -0.004843   0.175631  1 At d  1              80    -0.003468   0.172523  1 At d  2       

 Vector   37  Occ=0.000000D+00  E= 5.795445D-01
              MO Center= -6.6D-12, -1.7D-13,  1.8D-12, r^2= 1.3D+00
  Bfn.         Coefficient        Function           Bfn.         Coefficient        Function  
  ----     -------------------  ------------         ----     -------------------  ------------
    84    -0.721408  -0.177521  1 At d  1             175    -0.598459  -0.131150  1 At d  0       
   173    -0.127883   0.406255  1 At d -2             177     0.406255   0.127883  1 At d  2       
    82     0.049637  -0.315153  1 At d -1              79     0.250246   0.061579  1 At d  1       
   170     0.207596   0.045494  1 At d  0              81     0.187471   0.000986  1 At d -2       
    85    -0.000986   0.187471  1 At d  2              69     0.177942   0.043787  1 At d  1       

 Vector   38  Occ=0.000000D+00  E= 5.795445D-01
              MO Center=  3.0D-13,  8.7D-13, -8.4D-14, r^2= 3.4D-01
  Bfn.         Coefficient        Function           Bfn.         Coefficient        Function  
  ----     -------------------  ------------         ----     -------------------  ------------
   174     0.762932   0.043215  1 At d -1              83     0.038395  -0.664875  1 At d  0       
   176    -0.023287   0.388665  1 At d  1              81    -0.374267  -0.019927  1 At d -2       
    85     0.019927  -0.374267  1 At d  2             169    -0.264649  -0.014991  1 At d -1       
    78    -0.013319   0.230635  1 At d  0             159    -0.188184  -0.010659  1 At d -1       
    68    -0.009470   0.163998  1 At d  0             164     0.141972   0.008042  1 At d -1       

 Vector   39  Occ=0.000000D+00  E= 5.832924D-01
              MO Center= -1.1D-13, -2.2D-13, -5.8D-13, r^2= 7.3D-01
  Bfn.         Coefficient        Function           Bfn.         Coefficient        Function  
  ----     -------------------  ------------         ----     -------------------  ------------
   177     0.616658  -0.107666  1 At d  2             173    -0.303554  -0.526829  1 At d -2       
   176     0.447439  -0.172114  1 At d  1              83     0.397223  -0.142742  1 At d  0       
    84     0.143748   0.309003  1 At d  1              81     0.318960   0.008353  1 At d -2       
    85    -0.209750  -0.229258  1 At d  2             172    -0.233257   0.040726  1 At d  2       
   168     0.114822   0.199278  1 At d -2             175    -0.093390  -0.195922  1 At d  0       

 Vector   40  Occ=0.000000D+00  E= 5.832924D-01
              MO Center=  4.3D-13, -1.4D-13, -6.3D-15, r^2= 1.3D+00
  Bfn.         Coefficient        Function           Bfn.         Coefficient        Function  
  ----     -------------------  ------------         ----     -------------------  ------------
    85     0.138044  -0.618025  1 At d  2              81     0.578089   0.022853  1 At d -2       
    84     0.447396   0.183006  1 At d  1             175    -0.453841  -0.140554  1 At d  0       
   173    -0.057028   0.344846  1 At d -2              83    -0.147451   0.271097  1 At d  0       
   176    -0.200321   0.196454  1 At d  1              80    -0.052216   0.233774  1 At d  2       
    76    -0.218668  -0.008644  1 At d -2              79    -0.169232  -0.069224  1 At d  1       

 Vector   41  Occ=0.000000D+00  E= 5.832924D-01
              MO Center=  2.0D-13, -3.4D-13,  3.1D-13, r^2= 4.5D-01
  Bfn.         Coefficient        Function           Bfn.         Coefficient        Function  
  ----     -------------------  ------------         ----     -------------------  ------------
    82     0.333437   0.618994  1 At d -1             175    -0.478186   0.449613  1 At d  0       
   176     0.067471  -0.412250  1 At d  1              83     0.067700  -0.328357  1 At d  0       
    81     0.153433   0.275530  1 At d -2              77    -0.126126  -0.234140  1 At d -1       
   177    -0.149324   0.209284  1 At d  2              85     0.247146   0.069240  1 At d  2       
   170     0.180878  -0.170070  1 At d  0             173     0.135430  -0.193589  1 At d -2       

 Vector   42  Occ=0.000000D+00  E= 5.832924D-01
              MO Center= -5.2D-13,  4.0D-13,  2.1D-13, r^2= 6.3D-01
  Bfn.         Coefficient        Function           Bfn.         Coefficient        Function  
  ----     -------------------  ------------         ----     -------------------  ------------
   174    -0.661779   0.217274  1 At d -1              85    -0.300319  -0.467122  1 At d  2       
    84    -0.428193   0.152636  1 At d  1              83    -0.086133  -0.429023  1 At d  0       
   177    -0.386565  -0.023530  1 At d  2              82    -0.032444   0.297983  1 At d -1       
   169     0.250324  -0.082186  1 At d -1              80     0.113598   0.176693  1 At d  2       
   176     0.117816   0.166386  1 At d  1             175     0.112765  -0.160284  1 At d  0       

 Vector   43  Occ=0.000000D+00  E= 5.832924D-01
              MO Center=  1.0D-12,  9.0D-13,  1.6D-12, r^2= 1.1D+00
  Bfn.         Coefficient        Function           Bfn.         Coefficient        Function  
  ----     -------------------  ------------         ----     -------------------  ------------
   174     0.618180  -0.201167  1 At d -1              84    -0.538515   0.137826  1 At d  1       
    81     0.386367  -0.302655  1 At d -2             177    -0.391161  -0.054516  1 At d  2       
    83     0.178606   0.284184  1 At d  0             176     0.005069  -0.290033  1 At d  1       
   175     0.232370  -0.168286  1 At d  0              82    -0.056493   0.270197  1 At d -1       
   169    -0.233832   0.076093  1 At d -1              85    -0.204607   0.067740  1 At d  2       

 Vector   44  Occ=0.000000D+00  E= 5.832924D-01
              MO Center=  3.0D-13,  1.1D-13, -3.7D-13, r^2= 1.0D+00
  Bfn.         Coefficient        Function           Bfn.         Coefficient        Function  
  ----     -------------------  ------------         ----     -------------------  ------------
   173     0.462915  -0.380699  1 At d -2             176    -0.487958  -0.277166  1 At d  1       
    82    -0.489102   0.098176  1 At d -1              83    -0.422087  -0.235770  1 At d  0       
   177     0.331869   0.148940  1 At d  2              81     0.176554  -0.308573  1 At d -2       
   175    -0.085468  -0.303329  1 At d  0             168    -0.175102   0.144003  1 At d -2       
   171     0.184575   0.104841  1 At d  1              77     0.185008  -0.037136  1 At d -1       

 Vector   45  Occ=0.000000D+00  E= 6.219546D-01
              MO Center=  6.5D-12,  2.8D-13, -4.5D-12, r^2= 2.0D+00
  Bfn.         Coefficient        Function           Bfn.         Coefficient        Function  
  ----     -------------------  ------------         ----     -------------------  ------------
   132    -6.544680  -4.486780  1 At px               133     4.486780  -6.544680  1 At py         
    42    -6.544680  -4.486780  1 At pz               136    -3.879263   5.658520  1 At py         
   135     5.658520   3.879263  1 At px                45     5.658520   3.879263  1 At pz         
   120     5.246881   3.597060  1 At px               121    -3.597060   5.246881  1 At py         
    30     5.246881   3.597060  1 At pz               127     3.054232  -4.455082  1 At py         

 Vector   46  Occ=0.000000D+00  E= 6.219546D-01
              MO Center=  1.7D-12, -6.2D-13,  1.8D-12, r^2= 2.7D+00
  Bfn.         Coefficient        Function           Bfn.         Coefficient        Function  
  ----     -------------------  ------------         ----     -------------------  ------------
    40    -7.534725   2.488362  1 At px                41     2.488362   7.534725  1 At py         
   134     7.534725  -2.488362  1 At pz                43     6.514512  -2.151434  1 At px         
    44    -2.151434  -6.514512  1 At py               137    -6.514512   2.151434  1 At pz         
    28     6.040603  -1.994924  1 At px                29    -1.994924  -6.040603  1 At py         
   122    -6.040603   1.994924  1 At pz                34    -5.129024   1.693873  1 At px         

 Vector   47  Occ=0.000000D+00  E= 6.720240D-01
              MO Center=  2.9D-13,  9.2D-14,  2.9D-13, r^2= 4.8D+00
  Bfn.         Coefficient        Function           Bfn.         Coefficient        Function  
  ----     -------------------  ------------         ----     -------------------  ------------
    40    11.320968   1.014808  1 At px                43    -9.502902  -0.851837  1 At px         
    28    -9.104455  -0.816121  1 At px                41    -0.120125   8.966066  1 At py         
    34     7.836862   0.702494  1 At px                44     0.100834  -7.526181  1 At py         
    29     0.096606  -7.210616  1 At py                35    -0.083156   6.206697  1 At py         
    31    -4.619634  -0.414103  1 At px                37     3.749998   0.336149  1 At px         

 Vector   48  Occ=0.000000D+00  E= 6.720240D-01
              MO Center= -4.0D-13,  3.9D-13,  9.4D-12, r^2= 1.7D+00
  Bfn.         Coefficient        Function           Bfn.         Coefficient        Function  
  ----     -------------------  ------------         ----     -------------------  ------------
   132    11.553947   0.647548  1 At px               135    -9.698467  -0.543557  1 At px         
   120    -9.291820  -0.520766  1 At px               126     7.998140   0.448261  1 At px         
    42    -6.499152  -2.786017  1 At pz                45     5.455435   2.338603  1 At pz         
    30     5.226694   2.240548  1 At pz               133    -2.138469  -5.054796  1 At py         
    36    -4.498993  -1.928601  1 At pz               123    -4.714703  -0.264238  1 At px         

 Vector   49  Occ=0.000000D+00  E= 6.720240D-01
              MO Center= -5.3D-14, -2.2D-14,  1.1D-13, r^2= 1.6D+00
  Bfn.         Coefficient        Function           Bfn.         Coefficient        Function  
  ----     -------------------  ------------         ----     -------------------  ------------
   134    11.170900   1.707437  1 At pz               137    -9.376934  -1.433235  1 At pz         
   122    -8.983769  -1.373141  1 At pz               128     7.732978   1.181961  1 At pz         
    41     0.544429  -6.434249  1 At py                44    -0.456998   5.400956  1 At py         
    42    -4.993844  -1.604928  1 At pz                29    -0.437836   5.174499  1 At py         
    40     4.736650   1.163008  1 At px               125    -4.558397  -0.696737  1 At pz         

 Vector   50  Occ=0.000000D+00  E= 6.720240D-01
              MO Center=  3.5D-13,  2.4D-13,  8.5D-13, r^2= 1.5D+00
  Bfn.         Coefficient        Function           Bfn.         Coefficient        Function  
  ----     -------------------  ------------         ----     -------------------  ------------
   133    -3.694861   9.899888  1 At py               136     3.101493  -8.310038  1 At py         
   121     2.971450  -7.961606  1 At py                42    -6.382849  -5.275235  1 At pz         
   127    -2.557742   6.853129  1 At py                45     5.357810   4.428071  1 At pz         
    30     5.133162   4.242406  1 At pz                36    -4.418483  -3.651745  1 At pz         
   134    -4.273462  -2.040077  1 At pz                41    -1.671116   4.262554  1 At py         

 Vector   51  Occ=0.000000D+00  E= 7.243961D-01
              MO Center= -7.3D-13,  2.9D-13, -6.1D-13, r^2= 1.7D+00
  Bfn.         Coefficient        Function           Bfn.         Coefficient        Function  
  ----     -------------------  ------------         ----     -------------------  ------------
    12   -24.512883  37.620903  1 At s                 11    18.887390 -28.987234  1 At s          
    10     7.105366 -10.904889  1 At s                104     9.702661  -3.627811  1 At s          
   103    -7.475985   2.795260  1 At s                102    -2.812438   1.051566  1 At s          
     9    -1.483554   2.276869  1 At s                  7    -0.433449   0.665231  1 At s          
   101     0.587218  -0.219560  1 At s                  8     0.262661  -0.403116  1 At s          

 Vector   52  Occ=0.000000D+00  E= 7.243961D-01
              MO Center=  3.1D-12, -1.5D-12, -8.4D-12, r^2= 1.4D-01
  Bfn.         Coefficient        Function           Bfn.         Coefficient        Function  
  ----     -------------------  ------------         ----     -------------------  ------------
   104    44.040537  -8.754706  1 At s                103   -33.933618   6.745577  1 At s          
   102   -12.765701   2.537661  1 At s                 12     6.977534  -7.656151  1 At s          
    11    -5.376251   5.899131  1 At s                 10    -2.022526   2.219231  1 At s          
   101     2.665394  -0.529847  1 At s                 99     0.778747  -0.154805  1 At s          
     9     0.422290  -0.463361  1 At s                100    -0.471903   0.093808  1 At s          

 Vector   53  Occ=0.000000D+00  E= 1.189473D+00
              MO Center= -1.3D-14,  6.6D-14,  3.2D-14, r^2= 3.8D-01
  Bfn.         Coefficient        Function           Bfn.         Coefficient        Function  
  ----     -------------------  ------------         ----     -------------------  ------------
   182     0.052649   0.440640  1 At f  1              89     0.124424  -0.337379  1 At f  0       
    91     0.243880   0.261159  1 At f  2              87     0.261159  -0.243872  1 At f -2       
   179    -0.004809  -0.338818  1 At f -2             180     0.110297   0.255832  1 At f -1       
   183    -0.202589  -0.116664  1 At f  2              86     0.148773   0.166845  1 At f -3       
    92     0.166845  -0.148773  1 At f  3              90     0.177856   0.089060  1 At f  1       

 Vector   54  Occ=0.000000D+00  E= 1.189473D+00
              MO Center=  1.1D-14,  5.9D-14, -8.8D-15, r^2= 4.7D-01
  Bfn.         Coefficient        Function           Bfn.         Coefficient        Function  
  ----     -------------------  ------------         ----     -------------------  ------------
   181    -0.038643  -0.647238  1 At f  0              90    -0.019630  -0.531679  1 At f  1       
    88     0.525257  -0.043473  1 At f -1              89     0.040697  -0.072022  1 At f  0       
   182    -0.032971   0.070457  1 At f  1             180     0.047155   0.033487  1 At f -1       

 Vector   55  Occ=0.000000D+00  E= 1.189473D+00
              MO Center= -1.7D-15,  4.5D-15, -5.6D-15, r^2= 1.2D-01
  Bfn.         Coefficient        Function           Bfn.         Coefficient        Function  
  ----     -------------------  ------------         ----     -------------------  ------------
   184    -0.654626  -0.000000  1 At f  3             178    -0.000000   0.654626  1 At f -3       
    91     0.267361  -0.000037  1 At f  2              87    -0.000037   0.267139  1 At f -2       

 Vector   56  Occ=0.000000D+00  E= 1.189473D+00
              MO Center= -1.5D-14,  2.6D-14,  3.3D-14, r^2= 4.7D-01
  Bfn.         Coefficient        Function           Bfn.         Coefficient        Function  
  ----     -------------------  ------------         ----     -------------------  ------------
   183    -0.328913  -0.194286  1 At f  2             180     0.378473   0.025248  1 At f -1       
    91    -0.213496  -0.282452  1 At f  2              87    -0.282452   0.213220  1 At f -2       
    89     0.196189  -0.244747  1 At f  0              92    -0.297473  -0.086447  1 At f  3       
    86     0.086447  -0.297473  1 At f -3             182    -0.295127   0.021196  1 At f  1       
    90     0.122890   0.134851  1 At f  1              88     0.066264  -0.139542  1 At f -1       

 Vector   57  Occ=0.000000D+00  E= 1.189473D+00
              MO Center=  1.7D-14,  3.7D-14,  1.6D-14, r^2= 4.5D-01
  Bfn.         Coefficient        Function           Bfn.         Coefficient        Function  
  ----     -------------------  ------------         ----     -------------------  ------------
   179    -0.419642   0.181806  1 At f -2             183     0.179094   0.413641  1 At f  2       
    89     0.401355  -0.131558  1 At f  0             182    -0.343153   0.100329  1 At f  1       
   180     0.114504   0.312258  1 At f -1              88    -0.294914   0.098912  1 At f -1       
    90    -0.129341  -0.232100  1 At f  1             181    -0.018634   0.038465  1 At f  0       
    87    -0.011207   0.026893  1 At f -2       

 Vector   58  Occ=0.000000D+00  E= 1.189473D+00
              MO Center= -3.2D-14,  3.6D-14, -6.0D-15, r^2= 6.6D-01
  Bfn.         Coefficient        Function           Bfn.         Coefficient        Function  
  ----     -------------------  ------------         ----     -------------------  ------------
    86    -0.309420   0.431717  1 At f -3              92     0.431717   0.309420  1 At f  3       
    91     0.022248  -0.320322  1 At f  2              87    -0.320322  -0.022239  1 At f -2       
   180     0.304363   0.021666  1 At f -1             179     0.132991  -0.252502  1 At f -2       
   183     0.099994   0.119649  1 At f  2              89     0.009306  -0.124646  1 At f  0       
   182     0.006470  -0.100816  1 At f  1              88     0.010661  -0.051266  1 At f -1       

 Vector   59  Occ=0.000000D+00  E= 1.191224D+00
              MO Center= -5.6D-14,  7.7D-15,  1.7D-14, r^2= 3.9D-01
  Bfn.         Coefficient        Function           Bfn.         Coefficient        Function  
  ----     -------------------  ------------         ----     -------------------  ------------
   180    -0.396869  -0.016926  1 At f -1             179    -0.209728  -0.326245  1 At f -2       
    90    -0.376949   0.001279  1 At f  1              89    -0.074088  -0.356672  1 At f  0       
    88     0.026098   0.350172  1 At f -1              87    -0.235834  -0.224208  1 At f -2       
   183    -0.133627  -0.192413  1 At f  2              92     0.087602   0.171485  1 At f  3       
   178     0.100406   0.150828  1 At f -3              86     0.007312  -0.166238  1 At f -3       

 Vector   60  Occ=0.000000D+00  E= 1.191224D+00
              MO Center= -2.5D-14,  4.1D-15,  2.1D-15, r^2= 3.0D-01
  Bfn.         Coefficient        Function           Bfn.         Coefficient        Function  
  ----     -------------------  ------------         ----     -------------------  ------------
   183    -0.504894  -0.211146  1 At f  2             180     0.347176  -0.159001  1 At f -1       
    91     0.056806   0.340720  1 At f  2              89     0.187802   0.270156  1 At f  0       
    90    -0.228656  -0.165002  1 At f  1              92     0.214270   0.143034  1 At f  3       
    88    -0.152585   0.200755  1 At f -1             179    -0.010286   0.233311  1 At f -2       
   178     0.184347  -0.023581  1 At f -3              87    -0.110835   0.001154  1 At f -2       

 Vector   61  Occ=0.000000D+00  E= 1.191224D+00
              MO Center= -2.4D-14,  2.7D-14, -1.3D-15, r^2= 3.7D-01
  Bfn.         Coefficient        Function           Bfn.         Coefficient        Function  
  ----     -------------------  ------------         ----     -------------------  ------------
    87     0.029364   0.555341  1 At f -2              91     0.364560  -0.147575  1 At f  2       
   178    -0.072235  -0.377007  1 At f -3             183     0.075264  -0.312728  1 At f  2       
    86    -0.171656  -0.192344  1 At f -3              90    -0.111177  -0.204305  1 At f  1       
   179    -0.061679  -0.208218  1 At f -2              88    -0.192639   0.099042  1 At f -1       
   182     0.166855   0.091504  1 At f  1             180    -0.095403   0.134797  1 At f -1       

 Vector   62  Occ=0.000000D+00  E= 1.191224D+00
              MO Center= -8.0D-14,  4.4D-14, -2.5D-14, r^2= 8.0D-01
  Bfn.         Coefficient        Function           Bfn.         Coefficient        Function  
  ----     -------------------  ------------         ----     -------------------  ------------
    92     0.593979  -0.292166  1 At f  3              86    -0.190989  -0.509448  1 At f -3       
   179     0.214603   0.155917  1 At f -2              91    -0.234992  -0.115159  1 At f  2       
    88    -0.145273  -0.081240  1 At f -1              90     0.084426  -0.141504  1 At f  1       
   178    -0.059353   0.152025  1 At f -3              87     0.030226  -0.136676  1 At f -2       
   182     0.072485   0.081182  1 At f  1             180    -0.053109   0.082966  1 At f -1       

 Vector   63  Occ=0.000000D+00  E= 1.191224D+00
              MO Center=  3.4D-16, -9.7D-16,  8.5D-15, r^2= 9.2D-02
  Bfn.         Coefficient        Function           Bfn.         Coefficient        Function  
  ----     -------------------  ------------         ----     -------------------  ------------
   184    -0.755922   0.000000  1 At f  3             178     0.000179  -0.565928  1 At f -3       
    91    -0.233528  -0.000209  1 At f  2              87    -0.000648  -0.231861  1 At f -2       

 Vector   64  Occ=0.000000D+00  E= 1.191224D+00
              MO Center= -2.1D-14, -2.0D-14,  2.6D-14, r^2= 3.4D-01
  Bfn.         Coefficient        Function           Bfn.         Coefficient        Function  
  ----     -------------------  ------------         ----     -------------------  ------------
   181     0.620433   0.427627  1 At f  0              88     0.258174  -0.398759  1 At f -1       
    90    -0.361113  -0.265559  1 At f  1             179     0.037011   0.008764  1 At f -2       
   183     0.015045   0.032341  1 At f  2             182    -0.004297  -0.025355  1 At f  1       

 Vector   65  Occ=0.000000D+00  E= 1.191224D+00
              MO Center= -5.1D-14,  1.1D-14,  2.8D-14, r^2= 6.9D-01
  Bfn.         Coefficient        Function           Bfn.         Coefficient        Function  
  ----     -------------------  ------------         ----     -------------------  ------------
    89     0.524185   0.063945  1 At f  0             179    -0.446725  -0.053989  1 At f -2       
   182     0.351786   0.046298  1 At f  1             180     0.032018  -0.290207  1 At f -1       
    88     0.243644  -0.142529  1 At f -1              86    -0.229577  -0.151734  1 At f -3       
   183     0.209434  -0.147296  1 At f  2              90     0.103250   0.229795  1 At f  1       
    91    -0.083744   0.050254  1 At f  2              87    -0.059286  -0.044798  1 At f -2       

 Vector   66  Occ=0.000000D+00  E= 1.191224D+00
              MO Center= -5.8D-14,  4.9D-15,  2.9D-14, r^2= 4.7D-01
  Bfn.         Coefficient        Function           Bfn.         Coefficient        Function  
  ----     -------------------  ------------         ----     -------------------  ------------
   182    -0.568956  -0.233668  1 At f  1             180     0.239658  -0.295995  1 At f -1       
    91     0.354948   0.132737  1 At f  2              86    -0.238718  -0.194525  1 At f -3       
    87     0.166620  -0.192095  1 At f -2              89    -0.222872   0.004891  1 At f  0       
   179    -0.202123  -0.064528  1 At f -2             183     0.133131  -0.159090  1 At f  2       
    92     0.113831  -0.091253  1 At f  3             178    -0.013833  -0.069245  1 At f -3       

 Vector   67  Occ=0.000000D+00  E= 1.309806D+00
              MO Center=  5.4D-14,  4.9D-14,  1.4D-14, r^2= 1.7D+00
  Bfn.         Coefficient        Function           Bfn.         Coefficient        Function  
  ----     -------------------  ------------         ----     -------------------  ------------
   132    17.541663  -4.608434  1 At px               133     4.608434  17.541663  1 At py         
    42    17.541663  -4.608434  1 At pz               120   -14.098054   3.703751  1 At px         
   121    -3.703751 -14.098054  1 At py                30   -14.098054   3.703751  1 At pz         
   126     8.562122  -2.249386  1 At px               127     2.249386   8.562122  1 At py         
    36     8.562122  -2.249386  1 At pz               123    -8.002792   2.102443  1 At px         

 Vector   68  Occ=0.000000D+00  E= 1.309806D+00
              MO Center= -8.6D-14, -2.9D-14,  8.0D-15, r^2= 1.8D+00
  Bfn.         Coefficient        Function           Bfn.         Coefficient        Function  
  ----     -------------------  ------------         ----     -------------------  ------------
    40   -12.788562 -12.860804  1 At px                41   -12.860804  12.788562  1 At py         
   134    12.788562  12.860804  1 At pz                28    10.278036  10.336096  1 At px         
    29    10.336096 -10.278036  1 At py               122   -10.278036 -10.336096  1 At pz         
    34    -6.242124  -6.277385  1 At px                35    -6.277385   6.242124  1 At py         
   128     6.242124   6.277385  1 At pz                31     5.834350   5.867308  1 At px         

 Vector   69  Occ=0.000000D+00  E= 1.412510D+00
              MO Center=  1.9D-14, -3.4D-14, -5.0D-14, r^2= 2.6D+00
  Bfn.         Coefficient        Function           Bfn.         Coefficient        Function  
  ----     -------------------  ------------         ----     -------------------  ------------
    40    21.199116 -17.428826  1 At px                28   -16.965524  13.948184  1 At px         
    41    13.452044  15.102843  1 At py                29   -10.765589 -12.086714  1 At py         
    31    -9.514863   7.822632  1 At px                34     9.460351  -7.777815  1 At px         
    43    -7.815210   6.425264  1 At px                32    -6.037721  -6.778654  1 At py         
    35     6.003130   6.739819  1 At py                44    -4.959195  -5.567774  1 At py         

 Vector   70  Occ=0.000000D+00  E= 1.412510D+00
              MO Center= -3.3D-14, -1.6D-14, -4.4D-14, r^2= 4.5D-01
  Bfn.         Coefficient        Function           Bfn.         Coefficient        Function  
  ----     -------------------  ------------         ----     -------------------  ------------
   134    26.217457  -8.196050  1 At pz               122   -20.981672   6.559249  1 At pz         
    41    -6.599840 -19.068130  1 At py                29     5.281812  15.260109  1 At py         
   125   -11.767260   3.678657  1 At pz               128    11.699844  -3.657582  1 At pz         
   137    -9.665258   3.021534  1 At pz                32     2.962226   8.558406  1 At py         
    35    -2.945255  -8.509374  1 At py                44     2.433079   7.029606  1 At py         

 Vector   71  Occ=0.000000D+00  E= 1.412510D+00
              MO Center= -2.7D-13, -1.8D-13, -2.0D-13, r^2= 3.4D-01
  Bfn.         Coefficient        Function           Bfn.         Coefficient        Function  
  ----     -------------------  ------------         ----     -------------------  ------------
   132    27.793784   0.646429  1 At px               120   -22.243197  -0.517333  1 At px         
   133     1.264256 -19.231139  1 At py               121    -1.011777  15.390564  1 At py         
   123   -12.474767  -0.290138  1 At px               126    12.403298   0.288476  1 At px         
   135   -10.246382  -0.238311  1 At px               124    -0.567440   8.631570  1 At py         
   127     0.564189  -8.582118  1 At py                42    -8.562645   0.617828  1 At pz         

 Vector   72  Occ=0.000000D+00  E= 1.412510D+00
              MO Center= -2.7D-13, -1.0D-13, -5.4D-15, r^2= 2.9D+00
  Bfn.         Coefficient        Function           Bfn.         Coefficient        Function  
  ----     -------------------  ------------         ----     -------------------  ------------
    42    26.311408  -6.716153  1 At pz                30   -21.056860   5.374897  1 At pz         
   133    -4.578642 -20.346630  1 At py               121     3.664259  16.283285  1 At py         
    33   -11.809428   3.014431  1 At pz                36    11.741770  -2.997161  1 At pz         
    45    -9.699893   2.475959  1 At pz               124     2.055045   9.132239  1 At py         
   127    -2.043272  -9.079919  1 At py               136     1.687950   7.500934  1 At py         

 Vector   73  Occ=0.000000D+00  E= 1.603947D+00
              MO Center=  2.7D-14,  3.7D-14,  6.5D-14, r^2= 4.7D-01
  Bfn.         Coefficient        Function           Bfn.         Coefficient        Function  
  ----     -------------------  ------------         ----     -------------------  ------------
    77    -0.628666   0.927105  1 At d -1             168    -0.248185   0.920529  1 At d -2       
   172     0.920529   0.248185  1 At d  2             171     0.800105  -0.243045  1 At d  1       
    76    -0.057337  -0.807559  1 At d -2              80     0.807559  -0.057337  1 At d  2       
   170     0.539061   0.582631  1 At d  0              72     0.365069  -0.538373  1 At d -1       
   163     0.144122  -0.534555  1 At d -2             167    -0.534555  -0.144122  1 At d  2       

 Vector   74  Occ=0.000000D+00  E= 1.603947D+00
              MO Center= -9.4D-15, -1.3D-14,  1.4D-14, r^2= 1.4D-01
  Bfn.         Coefficient        Function           Bfn.         Coefficient        Function  
  ----     -------------------  ------------         ----     -------------------  ------------
   169    -1.407530   0.191210  1 At d -1              78     0.102062   1.356379  1 At d  0       
   171     0.014433  -0.941786  1 At d  1             164     0.817358  -0.111036  1 At d -1       
    73    -0.059268  -0.787654  1 At d  0             174     0.677490  -0.092035  1 At d -1       
    83    -0.049126  -0.652869  1 At d  0             168    -0.276731  -0.503916  1 At d -2       
   172    -0.503916   0.276731  1 At d  2             166    -0.008381   0.546899  1 At d  1       

 Vector   75  Occ=0.000000D+00  E= 1.603947D+00
              MO Center= -1.6D-13,  4.9D-14,  7.0D-14, r^2= 7.4D-01
  Bfn.         Coefficient        Function           Bfn.         Coefficient        Function  
  ----     -------------------  ------------         ----     -------------------  ------------
   170    -1.202494   0.242874  1 At d  0              79    -1.081307   0.235094  1 At d  1       
    77    -0.185576  -1.001473  1 At d -1              80     0.216220  -0.816485  1 At d  2       
    76    -0.816485  -0.216220  1 At d -2             171     0.341804  -0.760175  1 At d  1       
   165     0.698293  -0.141038  1 At d  0              74     0.627919  -0.136520  1 At d  1       
    72     0.107765   0.581559  1 At d -1             175     0.578799  -0.116903  1 At d  0       

 Vector   76  Occ=0.000000D+00  E= 1.603947D+00
              MO Center=  5.6D-13,  6.6D-13,  7.4D-13, r^2= 7.2D-01
  Bfn.         Coefficient        Function           Bfn.         Coefficient        Function  
  ----     -------------------  ------------         ----     -------------------  ------------
   168    -0.544670  -0.959266  1 At d -2             172    -0.959266   0.544670  1 At d  2       
    79     0.946746  -0.170061  1 At d  1              76    -0.835925  -0.371950  1 At d -2       
[...]
    42     4.737843  -1.549333  1 At pz                20     1.639947  -4.515892  1 At py         

 Vector  168  Occ=0.000000D+00  E= 3.620216D+02
              MO Center= -6.9D-17,  1.4D-18,  2.3D-16, r^2= 5.4D-03
  Bfn.         Coefficient        Function           Bfn.         Coefficient        Function  
  ----     -------------------  ------------         ----     -------------------  ------------
   121     5.528104  15.675774  1 At py               133    -5.490166 -15.568196  1 At py         
    30    -7.550622   5.022876  1 At pz                42     7.498805  -4.988405  1 At pz         
   120    -8.125151   0.505228  1 At px               132     8.069391  -0.501761  1 At px         
   109     2.031286   5.760020  1 At py               122     4.719571   1.593189  1 At pz         
   134    -4.687182  -1.582255  1 At pz               112    -1.598467  -4.532695  1 At py         

 Vector  169  Occ=0.000000D+00  E= 5.743464D+02
              MO Center=  9.7D-17, -1.9D-16,  9.5D-17, r^2= 3.8D-03
  Bfn.         Coefficient        Function           Bfn.         Coefficient        Function  
  ----     -------------------  ------------         ----     -------------------  ------------
    46    -0.472776   0.016543  1 At d -2              50    -0.016543  -0.472776  1 At d  2       
   138    -0.380001   0.076958  1 At d -2             142     0.076958   0.380001  1 At d  2       
    49    -0.346198  -0.128116  1 At d  1              47    -0.251885  -0.269240  1 At d -1       
   140    -0.355324   0.071458  1 At d  0              61     0.306966  -0.010741  1 At d -2       
    65     0.010741   0.306966  1 At d  2             141     0.126328  -0.267756  1 At d  1       

 Vector  170  Occ=0.000000D+00  E= 5.743464D+02
              MO Center= -8.8D-17, -1.2D-16, -3.4D-17, r^2= 1.7D-03
  Bfn.         Coefficient        Function           Bfn.         Coefficient        Function  
  ----     -------------------  ------------         ----     -------------------  ------------
   139     0.619868   0.168499  1 At d -1              48     0.261952  -0.545134  1 At d  0       
   141    -0.285214   0.324331  1 At d  1             154    -0.402470  -0.109404  1 At d -1       
    63    -0.170081   0.353946  1 At d  0             144    -0.361374  -0.098233  1 At d -1       
   149     0.357107   0.097073  1 At d -1             159     0.355307   0.096583  1 At d -1       
    53    -0.152714   0.317805  1 At d  0              58     0.150911  -0.314053  1 At d  0       

 Vector  171  Occ=0.000000D+00  E= 5.743464D+02
              MO Center= -9.0D-17, -3.8D-16, -3.5D-16, r^2= 3.0D-03
  Bfn.         Coefficient        Function           Bfn.         Coefficient        Function  
  ----     -------------------  ------------         ----     -------------------  ------------
   141    -0.003418  -0.504183  1 At d  1              50    -0.112064  -0.416046  1 At d  2       
    46    -0.416046   0.112064  1 At d -2             138     0.319221  -0.271260  1 At d -2       
   142    -0.271260  -0.319221  1 At d  2              48    -0.060753   0.341976  1 At d  0       
   156     0.002219   0.327358  1 At d  1              49     0.310084   0.079348  1 At d  1       
   146     0.001993   0.293931  1 At d  1             151    -0.001969  -0.290461  1 At d  1       

 Vector  172  Occ=0.000000D+00  E= 5.743464D+02
              MO Center=  5.6D-17,  1.8D-17,  7.0D-18, r^2= 2.3D-03
  Bfn.         Coefficient        Function           Bfn.         Coefficient        Function  
  ----     -------------------  ------------         ----     -------------------  ------------
   140    -0.589003   0.048162  1 At d  0              47     0.143255  -0.546385  1 At d -1       
    49    -0.473798   0.226675  1 At d  1             155     0.382430  -0.031271  1 At d  0       
   142    -0.072588  -0.369930  1 At d  2             138     0.369930  -0.072588  1 At d -2       
    62    -0.093013   0.354759  1 At d -1             145     0.343380  -0.028078  1 At d  0       
    64     0.307629  -0.147176  1 At d  1             150    -0.339326   0.027746  1 At d  0       

 Vector  173  Occ=0.000000D+00  E= 5.759943D+02
              MO Center=  9.8D-17,  1.5D-16,  1.2D-16, r^2= 3.2D-03
  Bfn.         Coefficient        Function           Bfn.         Coefficient        Function  
  ----     -------------------  ------------         ----     -------------------  ------------
   141    -0.052852  -0.538821  1 At d  1              46     0.396143  -0.270591  1 At d -2       
    49    -0.315714   0.349139  1 At d  1              48     0.075435  -0.417950  1 At d  0       
    47     0.270984   0.295554  1 At d -1             138    -0.195241  -0.347126  1 At d -2       
   156     0.034273   0.349407  1 At d  1             146     0.030790   0.313898  1 At d  1       
   151    -0.030418  -0.310107  1 At d  1              61    -0.256885   0.175469  1 At d -2       

 Vector  174  Occ=0.000000D+00  E= 5.759943D+02
              MO Center=  2.1D-16,  2.0D-16, -1.1D-17, r^2= 5.0D-03
  Bfn.         Coefficient        Function           Bfn.         Coefficient        Function  
  ----     -------------------  ------------         ----     -------------------  ------------
    47    -0.700784  -0.153298  1 At d -1              62     0.454435   0.099409  1 At d -1       
   140    -0.046786  -0.423596  1 At d  0              52     0.408251   0.089306  1 At d -1       
    57    -0.403322  -0.088228  1 At d -1              67    -0.401151  -0.087753  1 At d -1       
    48     0.118243  -0.362173  1 At d  0             141    -0.071638  -0.291345  1 At d  1       
    46     0.033430  -0.296080  1 At d -2              49     0.207322  -0.211658  1 At d  1       

 Vector  175  Occ=0.000000D+00  E= 5.759943D+02
              MO Center=  9.9D-19,  8.4D-17,  3.5D-16, r^2= 1.2D-03
  Bfn.         Coefficient        Function           Bfn.         Coefficient        Function  
  ----     -------------------  ------------         ----     -------------------  ------------
   139     0.757400  -0.117144  1 At d -1              48    -0.215192   0.453404  1 At d  0       
   154    -0.491149   0.075964  1 At d -1             144    -0.441234   0.068244  1 At d -1       
   149     0.435905  -0.067420  1 At d -1             159     0.433559  -0.067057  1 At d -1       
   141    -0.365626  -0.233854  1 At d  1              63     0.139545  -0.294017  1 At d  0       
    46     0.258455  -0.157661  1 At d -2              53     0.125363  -0.264137  1 At d  0       

 Vector  176  Occ=0.000000D+00  E= 5.759943D+02
              MO Center=  6.3D-17,  2.3D-16, -4.2D-17, r^2= 2.1D-03
  Bfn.         Coefficient        Function           Bfn.         Coefficient        Function  
  ----     -------------------  ------------         ----     -------------------  ------------
   142     0.457463  -0.429119  1 At d  2             138    -0.276095  -0.476042  1 At d -2       
    50    -0.369511  -0.278354  1 At d  2             157    -0.296649   0.278269  1 At d  2       
   147    -0.266501   0.249989  1 At d  2             152     0.263283  -0.246970  1 At d  2       
   162     0.261866  -0.245641  1 At d  2             153     0.179038   0.308697  1 At d -2       
    48    -0.209100   0.281556  1 At d  0             143     0.160843   0.277325  1 At d -2       

 Vector  177  Occ=0.000000D+00  E= 5.759943D+02
              MO Center=  1.9D-17,  2.6D-17, -3.8D-17, r^2= 6.0D-04
  Bfn.         Coefficient        Function           Bfn.         Coefficient        Function  
  ----     -------------------  ------------         ----     -------------------  ------------
   140     0.028535   0.710640  1 At d  0              49     0.112436  -0.619068  1 At d  1       
   155    -0.018504  -0.460826  1 At d  0             145    -0.016623  -0.413993  1 At d  0       
   150     0.016423   0.408994  1 At d  0              64    -0.072911   0.401445  1 At d  1       
   160     0.016334   0.406793  1 At d  0              54    -0.065501   0.360646  1 At d  1       
    59     0.064710  -0.356291  1 At d  1              69     0.064362  -0.354374  1 At d  1       

 Vector  178  Occ=0.000000D+00  E= 5.759943D+02
              MO Center=  1.5D-16,  9.2D-17,  4.7D-17, r^2= 2.7D-03
  Bfn.         Coefficient        Function           Bfn.         Coefficient        Function  
  ----     -------------------  ------------         ----     -------------------  ------------
    50    -0.417519  -0.491145  1 At d  2              46     0.329278  -0.458398  1 At d -2       
   138     0.243677   0.371110  1 At d -2              65     0.270747   0.318491  1 At d  2       
   142    -0.358512   0.192351  1 At d  2              55     0.243231   0.286123  1 At d  2       
    60    -0.240294  -0.282668  1 At d  2              70    -0.239001  -0.281147  1 At d  2       
    61    -0.213526   0.297256  1 At d -2              51    -0.191825   0.267046  1 At d -2       

 Vector  179  Occ=0.000000D+00  E= 1.076397D+03
              MO Center= -2.3D-16,  6.9D-17, -1.0D-16, r^2= 1.3D-02
  Bfn.         Coefficient        Function           Bfn.         Coefficient        Function  
  ----     -------------------  ------------         ----     -------------------  ------------
     4    12.378398   1.725443  1 At s                  5    -8.027022  -1.118898  1 At s          
     3    -7.587244  -1.057597  1 At s                  6     2.962568   0.412957  1 At s          
    12    -1.772544  -0.247077  1 At s                  7    -1.578564  -0.220038  1 At s          
    11     1.248582   0.174042  1 At s                  8     1.119710   0.156078  1 At s          
    10     0.987717   0.137679  1 At s                  9    -0.818124  -0.114039  1 At s          

 Vector  180  Occ=0.000000D+00  E= 1.076397D+03
              MO Center= -9.3D-19, -2.9D-19,  4.6D-19, r^2= 1.4D-05
  Bfn.         Coefficient        Function           Bfn.         Coefficient        Function  
  ----     -------------------  ------------         ----     -------------------  ------------
    96     0.775364 -12.474001  1 At s                 97    -0.502801   8.089018  1 At s          
    95    -0.475254   7.645843  1 At s                 98     0.185571  -2.985449  1 At s          
   104    -0.111030   1.786234  1 At s                 99    -0.098879   1.590756  1 At s          
   103     0.078209  -1.258226  1 At s                100     0.070137  -1.128358  1 At s          
   102     0.061869  -0.995346  1 At s                101    -0.051246   0.824442  1 At s          

 Vector  181  Occ=0.000000D+00  E= 7.204404D+03
              MO Center= -4.1D-19,  8.1D-20, -2.2D-19, r^2= 1.7D-05
  Bfn.         Coefficient        Function           Bfn.         Coefficient        Function  
  ----     -------------------  ------------         ----     -------------------  ------------
    96    -2.771424   3.624883  1 At s                 97     1.837068  -2.402792  1 At s          
    95     1.676379  -2.192619  1 At s                 94    -0.868729   1.136254  1 At s          
    98    -0.697024   0.911672  1 At s                104     0.431665  -0.564596  1 At s          
    99     0.378985  -0.495693  1 At s                103    -0.304105   0.397754  1 At s          
   100    -0.270649   0.353995  1 At s                102    -0.240337   0.314349  1 At s          

 Vector  182  Occ=0.000000D+00  E= 7.204404D+03
              MO Center= -3.0D-17,  4.9D-19,  3.8D-19, r^2= 2.2D-03
  Bfn.         Coefficient        Function           Bfn.         Coefficient        Function  
  ----     -------------------  ------------         ----     -------------------  ------------
     4    -4.515394  -0.657105  1 At s                  5     2.993077   0.435569  1 At s          
     3     2.731271   0.397470  1 At s                  2    -1.415393  -0.205976  1 At s          
     6    -1.135639  -0.165265  1 At s                 12     0.703298   0.102348  1 At s          
     7     0.617468   0.089857  1 At s                 11    -0.495469  -0.072103  1 At s          
     8    -0.440960  -0.064171  1 At s                 10    -0.391574  -0.056984  1 At s          

 Vector  183  Occ=0.000000D+00  E= 1.075389D+05
              MO Center=  6.1D-20, -2.1D-20, -1.1D-19, r^2= 2.7D-06
  Bfn.         Coefficient        Function           Bfn.         Coefficient        Function  
  ----     -------------------  ------------         ----     -------------------  ------------
    96     0.541304  -1.780579  1 At s                 97    -0.362655   1.192927  1 At s          
    93    -0.345356   1.136021  1 At s                 95    -0.323009   1.062512  1 At s          
    94     0.147269  -0.484429  1 At s                 98     0.138885  -0.456850  1 At s          
   104    -0.086776   0.285443  1 At s                 99    -0.075932   0.249773  1 At s          
   103     0.061135  -0.201098  1 At s                100     0.054317  -0.178670  1 At s          

 Vector  184  Occ=0.000000D+00  E= 1.075389D+05
              MO Center= -2.8D-18, -2.1D-19, -2.0D-19, r^2= 4.0D-04
  Bfn.         Coefficient        Function           Bfn.         Coefficient        Function  
  ----     -------------------  ------------         ----     -------------------  ------------
     4    -1.842089  -0.264919  1 At s                  5     1.234136   0.177486  1 At s          
     1     1.175264   0.169020  1 At s                  3     1.099216   0.158083  1 At s          
     2    -0.501164  -0.072075  1 At s                  6    -0.472632  -0.067971  1 At s          
    12     0.295303   0.042469  1 At s                  7     0.258402   0.037162  1 At s          
    11    -0.208045  -0.029920  1 At s                  8    -0.184842  -0.026583  1 At s          


   alpha - beta orbital overlaps 
   ----------------------------- 


   alpha      1      2      3      4      5      6      7      8      9     10
    beta      6      6      6      6      7      7      7      7      7      7
 overlap   0.000  0.000  0.041  0.177  0.527  1.501  1.591  0.858  0.421  0.424


   alpha     11     12     13     14     15     16     17     18     19     20
    beta      7      7     25     26     27     25     26     27     22     23
 overlap   0.256  0.130  0.003  0.003  0.003  0.053  0.053  0.053  0.254  0.254


   alpha     21     22     23     24     25     26     27     28     29     30
    beta     24     22     23     24     22     23     24     34     35     36
 overlap   0.254  0.367  0.367  0.367  0.361  0.361  0.361  0.144  0.144  0.144


   alpha     31     32     33     34     35     36     37     38     39     40
    beta     34     35     36     34     35     36     34     35     36     34
 overlap   0.159  0.159  0.159  0.363  0.363  0.363  0.257  0.257  0.257  0.192


   alpha     41     42     43     44     45     46     47     48     49     50
    beta     35     36     34     35     36     66     67     68     69     70
 overlap   0.192  0.192  0.125  0.125  0.125  0.000  0.000  0.000  0.000  0.000


   alpha     51     52     53     54     55     56     57     58     59     60
    beta     66     67     68     69     70     66     67     68     69     70
 overlap   0.003  0.003  0.003  0.003  0.003  0.030  0.030  0.030  0.030  0.030


   alpha     61     62     63     64     65     66     67     68     69     70
    beta     66     67     68     69     70     66     67     68     69     70
 overlap   0.108  0.108  0.108  0.108  0.108  0.180  0.180  0.180  0.180  0.180


   alpha     71     72     73     74     75     76     77     78     79     80
    beta     66     67     68     69     70     66     67     68     69     70
 overlap   0.149  0.149  0.149  0.149  0.149  0.053  0.053  0.053  0.053  0.053


   alpha     81     82     83     84     85     86     87     88     89     90
    beta     66     67     68     69     70     35      7     35      7      7
 overlap   0.006  0.006  0.006  0.006  0.006  0.000  0.000  0.000  0.000  0.000


   alpha     91     92
    beta      7     34
 overlap   0.000  0.000

     --------------------------
     Expectation value of S2:  
     --------------------------
      <S2> =      0.1044 (Exact =     0.0000)


 Parallel integral file used      25 records with       0 large values


 Task  times  cpu:        1.9s     wall:        6.3s
 Summary of allocated global arrays
-----------------------------------
  No active global arrays



                         GA Statistics for process    0
                         ------------------------------

       create   destroy   get      put      acc     scatter   gather  read&inc
calls: 1318     1318     1.83e+04 1.91e+04 2.77e+04    0        0     1754     
number of processes/call 1.00e+00 1.00e+00 1.00e+00 0.00e+00 0.00e+00
bytes total:             1.13e+08 1.82e+08 1.33e+07 0.00e+00 0.00e+00 1.40e+04
bytes remote:            0.00e+00 0.00e+00 0.00e+00 0.00e+00 0.00e+00 0.00e+00
Max memory consumed for GA by this process: 20787584 bytes
MA_summarize_allocated_blocks: starting scan ...
MA_summarize_allocated_blocks: scan completed: 0 heap blocks, 0 stack blocks
MA usage statistics:

	allocation statistics:
					      heap	     stack
					      ----	     -----
	current number of blocks	         0	         0
	maximum number of blocks	        45	        23
	current total bytes		         0	         0
	maximum total bytes		 150646584	  24072840
	maximum total K-bytes		    150647	     24073
	maximum total M-bytes		       151	        25


                                NWChem Input Module
                                -------------------





                                     CITATION
                                     --------
                Please cite the following reference when publishing
                           results obtained with NWChem:

                 M. Valiev, E.J. Bylaska, N. Govind, K. Kowalski,
              T.P. Straatsma, H.J.J. van Dam, D. Wang, J. Nieplocha,
                        E. Apra, T.L. Windus, W.A. de Jong
                 "NWChem: a comprehensive and scalable open-source
                  solution for large scale molecular simulations"
                      Comput. Phys. Commun. 181, 1477 (2010)
                           doi:10.1016/j.cpc.2010.04.018

                                      AUTHORS
                                      -------
          E. Apra, E. J. Bylaska, W. A. de Jong, N. Govind, K. Kowalski,
       T. P. Straatsma, M. Valiev, H. J. J. van Dam, D. Wang, T. L. Windus,
        J. Hammond, J. Autschbach, K. Bhaskaran-Nair, J. Brabec, K. Lopata,
    S. A. Fischer, S. Krishnamoorthy, M. Jacquelin, W. Ma, M. Klemm, O. Villa,
      Y. Chen, V. Anisimov, F. Aquino, S. Hirata, M. T. Hackler, V. Konjkov,
            D. Mejia-Rodriguez, T. Risthaus, M. Malagoli, A. Marenich,
   A. Otero-de-la-Roza, J. Mullin, P. Nichols, R. Peverati, J. Pittner, Y. Zhao,
        P.-D. Fan, A. Fonari, M. J. Williamson, R. J. Harrison, J. R. Rehr,
      M. Dupuis, D. Silverstein, D. M. A. Smith, J. Nieplocha, V. Tipparaju,
    M. Krishnan, B. E. Van Kuiken, A. Vazquez-Mayagoitia, L. Jensen, M. Swart,
      Q. Wu, T. Van Voorhis, A. A. Auer, M. Nooijen, L. D. Crosby, E. Brown,
      G. Cisneros, G. I. Fann, H. Fruchtl, J. Garza, K. Hirao, R. A. Kendall,
      J. A. Nichols, K. Tsemekhman, K. Wolinski, J. Anchell, D. E. Bernholdt,
      P. Borowski, T. Clark, D. Clerc, H. Dachsel, M. J. O. Deegan, K. Dyall,
    D. Elwood, E. Glendening, M. Gutowski, A. C. Hess, J. Jaffe, B. G. Johnson,
     J. Ju, R. Kobayashi, R. Kutteh, Z. Lin, R. Littlefield, X. Long, B. Meng,
      T. Nakajima, S. Niu, L. Pollack, M. Rosing, K. Glaesemann, G. Sandrone,
      M. Stave, H. Taylor, G. Thomas, J. H. van Lenthe, A. T. Wong, Z. Zhang.

 Total times  cpu:        2.0s     wall:        6.9s
