 argument  1 = at_pbe0_sodft.nw
                                         
                                         


              Northwest Computational Chemistry Package (NWChem) 6.8
              ------------------------------------------------------


                    Environmental Molecular Sciences Laboratory
                       Pacific Northwest National Laboratory
                                Richland, WA 99352

                              Copyright (c) 1994-2018
                       Pacific Northwest National Laboratory
                            Battelle Memorial Institute

             NWChem is an open-source computational chemistry package
                        distributed under the terms of the
                      Educational Community License (ECL) 2.0
             A copy of the license is included with this distribution
                              in the LICENSE.TXT file

                                  ACKNOWLEDGMENT
                                  --------------

            This software and its documentation were developed at the
            EMSL at Pacific Northwest National Laboratory, a multiprogram
            national laboratory, operated for the U.S. Department of Energy
            by Battelle under Contract Number DE-AC05-76RL01830. Support
            for this work was provided by the Department of Energy Office
            of Biological and Environmental Research, Office of Basic
            Energy Sciences, and the Office of Advanced Scientific Computing.


           Job information
           ---------------

    hostname        = login00
    program         = nwchem
    date            = Tue Jul 27 12:06:13 2021

    compiled        = Mon_Jun_22_16:48:09_2020
    source          = /opt/shared/nwchem/6.8.1/src
    nwchem branch   = Development
    nwchem revision = N/A
    ga revision     = 5.6.5
    use scalapack   = F
    input           = at_pbe0_sodft.nw
    prefix          = at_pbe0_sodft.
    data base       = /work/akanane/users/akanane/Relativistic/GA/parallel/at_pbe0_sodft.db
    status          = startup
    nproc           =        1
    time left       =     -1s



           Memory information
           ------------------

    heap     = 1048575996 doubles =   8000.0 Mbytes
    stack    = 1048576001 doubles =   8000.0 Mbytes
    global   = 2097152000 doubles =  16000.0 Mbytes (distinct from heap & stack)
    total    = 4194303997 doubles =  32000.0 Mbytes
    verify   = yes
    hardfail = no 


           Directory information
           ---------------------

  0 permanent = /work/akanane/users/akanane/Relativistic/GA/parallel
  0 scratch   = /lustre/scratch/akanane/nwchem/1




                                NWChem Input Module
                                -------------------


  library name resolved from: environment
  library file name is: </opt/shared/nwchem/6.8.1/data/libraries/>
  
                      Basis "ao basis" -> "" (spherical)
                      -----
  At (Astatine)
  -------------
            Exponent  Coefficients 
       -------------- ---------------------------------------------------------
  1 S  9.09028000E+03 -0.000005
  1 S  1.37307000E+03  0.000061
  1 S  3.07950000E+02 -0.000376
  1 S  4.80176000E+01  0.015620
  1 S  2.39099000E+01 -0.116008
  1 S  1.49334000E+01  0.326014
  1 S  9.33171000E+00  0.014182
  1 S  5.83206000E+00 -1.101559
  1 S  2.28787000E+00  1.018631
  1 S  1.24983000E+00  0.482911
  1 S  5.75368000E-01  0.207936
  1 S  3.31459000E-01 -0.096190
  1 S  1.63367000E-01  0.034545
  1 S  7.62100000E-02 -0.007684

  2 S  9.09028000E+03  0.000002
  2 S  1.37307000E+03 -0.000026
  2 S  3.07950000E+02  0.000158
  2 S  4.80176000E+01 -0.007175
  2 S  2.39099000E+01  0.058552
  2 S  1.49334000E+01 -0.196850
  2 S  9.33171000E+00  0.121474
  2 S  5.83206000E+00  0.443107
  2 S  2.28787000E+00 -0.618618
  2 S  1.24983000E+00 -0.515236
  2 S  5.75368000E-01 -0.013550
  2 S  3.31459000E-01  0.686236
  2 S  1.63367000E-01  0.458206
  2 S  7.62100000E-02  0.175683

  3 S  6.15050000E+00  1.000000

  4 S  3.08510000E+00  1.000000

  5 S  1.54750000E+00  1.000000

  6 S  5.75368000E-01  1.000000

  7 S  3.31459000E-01  1.000000

  8 S  1.63367000E-01  1.000000

  9 S  7.62100000E-02  1.000000

 10 S  2.97000000E-02  1.000000

 11 P  1.24602000E+02  0.000270
 11 P  2.08899000E+01 -0.014307
 11 P  1.30585000E+01  0.084531
 11 P  8.16061000E+00 -0.234730
 11 P  5.09808000E+00  0.032303
 11 P  2.37876000E+00  0.391253
 11 P  1.23755000E+00  0.204380
 11 P  6.08325000E-01  0.050133
 11 P  2.89782000E-01 -0.006348
 11 P  1.30004000E-01  0.003570
 11 P  5.60960000E-02 -0.000962

 12 P  1.24602000E+02 -0.000165
 12 P  2.08899000E+01  0.007663
 12 P  1.30585000E+01 -0.039406
 12 P  8.16061000E+00  0.067225
 12 P  5.09808000E+00  0.124520
 12 P  2.37876000E+00 -0.293222
 12 P  1.23755000E+00 -0.223254
 12 P  6.08325000E-01 -0.073332
 12 P  2.89782000E-01  0.004963
 12 P  1.30004000E-01 -0.003970
 12 P  5.60960000E-02  0.001043

 13 P  1.24602000E+02  0.000083
 13 P  2.08899000E+01 -0.004128
 13 P  1.30585000E+01  0.028107
 13 P  8.16061000E+00 -0.094613
 13 P  5.09808000E+00  0.030862
 13 P  2.37876000E+00  0.175330
 13 P  1.23755000E+00  0.105458
 13 P  6.08325000E-01 -0.094979
 13 P  2.89782000E-01 -0.269460
 13 P  1.30004000E-01 -0.206012
 13 P  5.60960000E-02 -0.083171

 14 P  1.24602000E+02  0.000060
 14 P  2.08899000E+01 -0.002861
 14 P  1.30585000E+01  0.016369
 14 P  8.16061000E+00 -0.035302
 14 P  5.09808000E+00 -0.036998
 14 P  2.37876000E+00  0.133072
 14 P  1.23755000E+00  0.117753
 14 P  6.08325000E-01 -0.007312
 14 P  2.89782000E-01 -0.229037
 14 P  1.30004000E-01 -0.192167
 14 P  5.60960000E-02 -0.196822

 15 P  3.30930000E+00  1.000000

 16 P  2.07150000E+00  1.000000

 17 P  1.29660000E+00  1.000000

 18 P  6.08325000E-01  1.000000

 19 P  2.89782000E-01  1.000000

 20 P  1.30004000E-01  1.000000

 21 P  5.60960000E-02  1.000000

 22 P  2.29000000E-02  1.000000

 23 D  1.83913000E+02  0.000007
 23 D  5.45133000E+01 -0.000149
 23 D  1.57516000E+01 -0.002424
 23 D  7.02437000E+00 -0.030515
 23 D  4.38674000E+00  0.009179
 23 D  2.56158000E+00  0.154218
 23 D  1.50882000E+00  0.154265
 23 D  8.92151000E-01  0.134773
 23 D  5.18170000E-01  0.056545
 23 D  2.83732000E-01  0.019972
 23 D  1.27000000E-01  0.001769

 24 D  1.83913000E+02  0.000006
 24 D  5.45133000E+01 -0.000141
 24 D  1.57516000E+01 -0.002634
 24 D  7.02437000E+00 -0.025610
 24 D  4.38674000E+00 -0.008554
 24 D  2.56158000E+00  0.162686
 24 D  1.50882000E+00  0.172670
 24 D  8.92151000E-01  0.159127
 24 D  5.18170000E-01  0.072249
 24 D  2.83732000E-01  0.026390
 24 D  1.27000000E-01  0.003037

 25 D  3.91910000E+00  1.000000

 26 D  2.04930000E+00  1.000000

 27 D  1.07160000E+00  1.000000

 28 D  5.18170000E-01  1.000000

 29 D  2.83732000E-01  1.000000

 30 D  1.27000000E-01  1.000000

 31 D  5.42000000E-02  1.000000

 32 F  3.45970000E+00  1.000000

 33 F  2.03190000E+00  1.000000

 34 F  1.19340000E+00  1.000000

 35 F  5.38900000E-01  1.000000

 36 F  2.28700000E-01  1.000000

 37 F  1.21000000E-01  1.000000

 38 G  3.75660000E+00  1.000000

 39 G  1.21510000E+00  1.000000

 40 G  4.36300000E-01  1.000000

 41 G  2.21700000E-01  1.000000

 42 H  1.31020000E+00  1.000000



 Summary of "ao basis" -> "" (spherical)
 ------------------------------------------------------------------------------
       Tag                 Description            Shells   Functions and Types
 ---------------- ------------------------------  ------  ---------------------
 At                      user specified             42      180   10s12p9d6f4g1h


  library name resolved from: environment
  library file name is: </opt/shared/nwchem/6.8.1/data/libraries/>
  
                 ECP       "ecp basis" -> "" (cartesian)
                -----
  At (Astatine) Replaces    60 electrons
  --------------------------------------
             Channel    R-exponent     Exponent     Coefficients
         ------------ ---------------------------------------------------------
  1 U L       Both         0.00      525.754846      -0.173059
  1 U L       Both         1.00     2395.715850      -2.276906
  1 U L       Both         1.00      278.392187      -3.857969
  1 U L       Both         1.00       61.458962     -36.770662
  1 U L       Both         1.00       44.129376      37.601009
  1 U L       Both         1.00       31.359815     -23.238699
  1 U L       Both         1.00       11.620573     -16.176532
  1 U L       Both         1.00        4.446625      -3.261971
  1 U L       Both         1.00        2.935632       0.180132
  1 U L       Both         1.00        1.910251      -0.146253
  1 U L       Both         1.00        0.178868      -0.000306
  1 U L       Both         1.00        0.018768      -0.000022
  1 U L       Both         1.00        0.009761      -0.000001

  2 U-s       Both         0.00       78.594234      10.173059
  2 U-s       Both         1.00       20.707609      53.132769
  2 U-s       Both         2.00       45.167107     915.704248
  2 U-s       Both         2.00       30.243749   -1411.543382
  2 U-s       Both         2.00       20.306371    1849.067583
  2 U-s       Both         2.00       13.560689   -1518.357864
  2 U-s       Both         2.00        8.557058    1106.328043
  2 U-s       Both         2.00        5.419636    -461.892244
  2 U-s       Both         2.00        3.516909     198.105995
  2 U-s       Both         2.00        2.287714     -81.896353
  2 U-s       Both         2.00        1.492833      32.227905
  2 U-s       Both         2.00        0.974359     -11.458592
  2 U-s       Both         2.00        0.633560       3.370887
  2 U-s       Both         2.00        0.410317      -0.726005
  2 U-s       Both         2.00        0.263860       0.084087

  3 U-p       Both         0.00       77.044856       9.173059
  3 U-p       Both         1.00      208.029432     -11.921411
  3 U-p       Both         1.00       28.036479      67.690912
  3 U-p       Both         2.00       39.868030     362.644345
  3 U-p       Both         2.00       26.002305    -582.208229
  3 U-p       Both         2.00       15.965542    1135.430155
  3 U-p       Both         2.00       11.089072   -1255.187511
  3 U-p       Both         2.00        8.084023     873.528658
  3 U-p       Both         2.00        5.150690    -147.543640
  3 U-p       Both         2.00        2.818771      20.737280
  3 U-p       Both         2.00        1.590819      -4.949674
  3 U-p       Both         2.00        0.878982       1.224799
  3 U-p       Both         2.00        0.479414      -0.318322
  3 U-p       Both         2.00        0.264399       0.075196
  3 U-p       Both         2.00        0.157424      -0.011770

  4 U-d       Both         0.00       30.117728       7.173059
  4 U-d       Both         1.00        9.540744     223.203571
  4 U-d       Both         1.00        5.932081    -532.676982
  4 U-d       Both         1.00        3.279986     364.117347
  4 U-d       Both         2.00        6.384402     470.098427
  4 U-d       Both         2.00        3.591978    -476.290215
  4 U-d       Both         2.00        1.790367       1.447964
  4 U-d       Both         2.00        0.921766      -0.463077
  4 U-d       Both         2.00        0.485962       0.163733
  4 U-d       Both         2.00        0.266420      -0.069600
  4 U-d       Both         2.00        0.150370       0.031881
  4 U-d       Both         2.00        0.090090      -0.013071
  4 U-d       Both         2.00        0.051240       0.003831
  4 U-d       Both         2.00        0.029281      -0.000895
  4 U-d       Both         2.00        0.016722       0.000119

  5 U-f       Both         0.00        0.891112       4.173059
  5 U-f       Both         1.00       18.356496      62.551914
  5 U-f       Both         2.00    32873.554569    1035.415119
  5 U-f       Both         2.00     3063.446789     192.725071
  5 U-f       Both         2.00       31.894642    -183.984679
  5 U-f       Both         2.00        4.214026      69.570454
  5 U-f       Both         2.00        1.887936    -131.986631
  5 U-f       Both         2.00        1.332761     223.444177
  5 U-f       Both         2.00        0.873304    -167.865396
  5 U-f       Both         2.00        0.632167      71.630825
  5 U-f       Both         2.00        0.438045     -11.215886
  5 U-f       Both         2.00        0.261926       0.470906
  5 U-f       Both         2.00        0.174510       0.000847

  library name resolved from: environment
  library file name is: </opt/shared/nwchem/6.8.1/data/libraries/>
  

 **** WARNING Zero Coefficient **** on atom "              At"
 angular momentum value: 1  standard basis set name: "user specified"
 input line that generated warning:
   218: 0	7.704485637704510E+01		0.000000000000000E+00
  

 **** WARNING Zero Coefficient **** on atom "              At"
 angular momentum value: 2  standard basis set name: "user specified"
 input line that generated warning:
   234: 0	3.011772828438610E+01		0.000000000000000E+00
  

 **** WARNING Zero Coefficient **** on atom "              At"
 angular momentum value: 3  standard basis set name: "user specified"
 input line that generated warning:
   250: 0	8.911119625038520E-01		0.000000000000000E+00
  

 **** WARNING Zero Coefficient **** on atom "              At"
 angular momentum value: 4  standard basis set name: "user specified"
 input line that generated warning:
   264: 0	5.257548462769590E+02		0.000000000000000E+00
  
             SO Potential "so potential" -> ""
                      -----
  At (Astatine)
  -------------
          R-exponent    Exponent     Coefficients 
         ------------ ------------------------------------------------------------
  1 U-p      1.00      208.029432       2.561177
  1 U-p      1.00       28.036479      -1.650544
  1 U-p      2.00       39.868030      77.307362
  1 U-p      2.00       26.002305    -118.585980
  1 U-p      2.00       15.965542     138.579485
  1 U-p      2.00       11.089072     -52.715330
  1 U-p      2.00        8.084023     -58.916702
  1 U-p      2.00        5.150690      62.873440
  1 U-p      2.00        2.818771     -15.889430
  1 U-p      2.00        1.590819       4.843922
  1 U-p      2.00        0.878982      -1.405982
  1 U-p      2.00        0.479414       0.390801
  1 U-p      2.00        0.264399      -0.095951
  1 U-p      2.00        0.157424       0.015456

  2 U-d      1.00        9.540744       1.612834
  2 U-d      1.00        5.932081      -1.350383
  2 U-d      1.00        3.279986      -0.287663
  2 U-d      2.00        6.384402      -1.664264
  2 U-d      2.00        3.591978       4.036069
  2 U-d      2.00        1.790367      -0.890782
  2 U-d      2.00        0.921766       0.301059
  2 U-d      2.00        0.485962      -0.123316
  2 U-d      2.00        0.266420       0.057045
  2 U-d      2.00        0.150370      -0.027051
  2 U-d      2.00        0.090090       0.011366
  2 U-d      2.00        0.051240      -0.003367
  2 U-d      2.00        0.029281       0.000795
  2 U-d      2.00        0.016722      -0.000104

  3 U-f      1.00       18.356496      -0.000643
  3 U-f      2.00    32873.554569       0.834481
  3 U-f      2.00     3063.446789       0.273486
  3 U-f      2.00       31.894642       0.160633
  3 U-f      2.00        4.214026      -0.068824
  3 U-f      2.00        1.887936       0.022494
  3 U-f      2.00        1.332761      -0.174753
  3 U-f      2.00        0.873304       0.160803
  3 U-f      2.00        0.632167       0.036072
  3 U-f      2.00        0.438045      -0.065269
  3 U-f      2.00        0.261926       0.016437
  3 U-f      2.00        0.174510      -0.002626

  4 U-g      1.00     2395.715850      -1.527919
  4 U-g      1.00      278.392187      -3.033005
  4 U-g      1.00       61.458962       2.574144
  4 U-g      1.00       44.129376      -2.630667
  4 U-g      1.00       31.359815       1.110494
  4 U-g      1.00       11.620573      -0.051219
  4 U-g      1.00        4.446625       0.042132
  4 U-g      1.00        2.935632      -0.036158
  4 U-g      1.00        1.910251       0.008870
  4 U-g      1.00        0.178868       0.000099
  4 U-g      1.00        0.018768       0.000004
  4 U-g      1.00        0.009761      -0.000000

                                       At 2p
                                       -----

 Scaling coordinates for geometry "geometry" by  1.889725989
 (inverse scale =  0.529177249)



                             Geometry "geometry" -> ""
                             -------------------------

 Output coordinates in angstroms (scale by  1.889725989 to convert to a.u.)

  No.       Tag          Charge          X              Y              Z
 ---- ---------------- ---------- -------------- -------------- --------------
    1 At                  85.0000     0.00000000     0.00000000     0.00000000

      Atomic Mass 
      ----------- 

      At               210.987500


 Effective nuclear repulsion energy (a.u.)       0.0000000000

            Nuclear Dipole moment (a.u.) 
            ----------------------------
        X                 Y               Z
 ---------------- ---------------- ----------------
     0.0000000000     0.0000000000     0.0000000000


            XYZ format geometry
            -------------------
     1
 geometry
 At                    0.00000000     0.00000000     0.00000000


                                 NWChem DFT Module
                                 -----------------


                                       At 2p




 Summary of "ao basis" -> "ao basis" (spherical)
 ------------------------------------------------------------------------------
       Tag                 Description            Shells   Functions and Types
 ---------------- ------------------------------  ------  ---------------------
 At                      user specified             42      180   10s12p9d6f4g1h


  texas integral default override: limxmem =             30000000
  Caching 1-el integrals 
  itol2e modified to match energy
  convergence criterion.
  tol_rho modified to match energy
  convergence criterion.

            General Information
            -------------------
          SCF calculation type: DFT
          Wavefunction type:  spin polarized.
          No. of atoms     :     1
          No. of electrons :    23
           Alpha electrons :    13
            Beta electrons :    10
          Charge           :     2
          Spin multiplicity:     4
          Use of symmetry is: off; symmetry adaption is: off
          Maximum number of iterations: 100
          AO basis - number of functions:   180
                     number of shells:    42
          Convergence on energy requested:  1.00D-10
          Convergence on density requested:  1.00D-07
          Convergence on gradient requested:  1.00D-07

              XC Information
              --------------
                         PBE0 Method XC Functional
                     Hartree-Fock (Exact) Exchange  0.250          
          PerdewBurkeErnzerhof Exchange Functional  0.750          
            Perdew 1991 LDA Correlation Functional  1.000 local    
           PerdewBurkeErnz. Correlation Functional  1.000 non-local

             Grid Information
             ----------------
          Grid used for XC integration:  xfine     
          Radial quadrature: Mura-Knowles        
          Angular quadrature: Lebedev. 
          Tag              B.-S. Rad. Rad. Pts. Rad. Cut. Ang. Pts.
          ---              ---------- --------- --------- ---------
          At                  1.90      205          12.0      1454
          Grid pruning is: on 
          Number of quadrature shells:   205
          Spatial weights used:  Erf1

          Convergence Information
          -----------------------
          Convergence aids based upon iterative change in 
          total energy or number of iterations. 
          Levelshifting, if invoked, occurs when the 
          HOMO/LUMO gap drops below (HL_TOL):  1.00D-02
          DIIS, if invoked, will attempt to extrapolate 
          using up to (NFOCK): 10 stored Fock matrices.

                    Damping( 0%)  Levelshifting(0.5)       DIIS
                  --------------- ------------------- ---------------
          dE  on:    start            ASAP                start   
          dE off:    2 iters        100 iters           100 iters 


      Screening Tolerance Information
      -------------------------------
          Density screening/tol_rho:  1.00D-13
          AO Gaussian exp screening on grid/accAOfunc:  23
          CD Gaussian exp screening on grid/accCDfunc:  20
          XC Gaussian exp screening on grid/accXCfunc:  20
          Schwarz screening/accCoul:  1.00D-11

 Performing spin-orbit DFT (SO-DFT) calculations
 -----------------------------------------------


 Forcing the number of linearly dependent vectors to be  0

      Non-variational initial energy
      ------------------------------

 Total energy =       0.000000
 1-e energy   =       0.000000
 2-e energy   =       0.000000
 HOMO         =     -14.418337
 LUMO         =     -14.418337

   Time prior to 1st pass:      2.1

 Integral file          = /lustre/scratch/akanane/nwchem/1/at_pbe0_sodft.aoints.0
 Record size in doubles =    65536    No. of integs per rec  =    43688
 Max. records in memory =     4096    Max. records in file   = ********
 No. of bits per label  =        8    No. of bits per value  =       64


 #quartets = 4.082D+05 #integrals = 1.500D+07 #direct =  0.0% #cached =100.0%


 Grid_pts file          = /lustre/scratch/akanane/nwchem/1/at_pbe0_sodft.gridpts.0
 Record size in doubles =  12289        No. of grid_pts per rec  =   3070
 Max. records in memory =    108        Max. recs in file   = *********


           Memory utilization after 1st SCF pass: 
           Heap Space remaining (MW):      778.74           778743932
          Stack Space remaining (MW):     1048.31          1048311988

   convergence    iter        energy       DeltaE   RMS-Dens  Diis-err    time
 ---------------- ----- ----------------- --------- --------- ---------  ------
 d= 0,ls=0.0,diis     1   -235.6120546231 -2.36D+02  2.06D+00  3.51D+02   107.5
                                                     1.09D+00  3.51D+02
 d= 0,ls=0.5,diis     2   -235.6456302258 -3.36D-02  8.12D-02  1.85D+02   114.7
                                                     6.45D-02  1.85D+02
 d= 0,ls=0.5,diis     3   -261.5790237661 -2.59D+01  1.47D-01  4.74D+00   121.7
                                                     1.94D-01  4.74D+00
 d= 0,ls=0.0,diis     4   -262.0671248198 -4.88D-01  1.83D-02  1.27D-01   128.7
                                                     5.83D-03  1.27D-01
 d= 0,ls=0.0,diis     5   -262.0905513045 -2.34D-02  4.20D-03  3.46D-03   135.8
                                                     1.71D-03  3.46D-03
 d= 0,ls=0.0,diis     6   -262.0910699090 -5.19D-04  5.58D-04  4.84D-05   143.1
                                                     3.58D-04  4.84D-05
 d= 0,ls=0.0,diis     7   -262.0911193134 -4.94D-05  1.72D-04  6.76D-06   150.2
                                                     1.45D-04  6.76D-06
 d= 0,ls=0.0,diis     8   -262.0911348008 -1.55D-05  2.47D-04  2.01D-06   157.5
                                                     1.92D-04  2.01D-06
 d= 0,ls=0.0,diis     9   -262.0911434877 -8.69D-06  3.39D-05  4.88D-08   164.6
                                                     2.16D-05  4.88D-08
 d= 0,ls=0.0,diis    10   -262.0911436100 -1.22D-07  1.84D-06  1.15D-09   171.7
                                                     1.47D-06  1.15D-09
 d= 0,ls=0.0,diis    11   -262.0911436110 -9.97D-10  2.81D-07  1.83D-11   178.6
                                                     2.40D-07  1.83D-11
 d= 0,ls=0.0,diis    12   -262.0911436110 -7.67D-12  1.37D-07  7.54D-14   185.0
                                                     1.07D-07  7.54D-14
 d= 0,ls=0.0,diis    13   -262.0911436110 -7.39D-13  1.38D-07  4.39D-14   192.5
                                                     1.04D-07  4.39D-14
  Singularity in Pulay matrix. Error and Fock matrices removed. 
 d= 0,ls=0.0,diis    14   -262.0911436110 -3.13D-12  1.16D-07  3.76D-14   198.5
                                                     1.06D-07  3.76D-14
  Singularity in Pulay matrix. Error and Fock matrices removed. 
  Singularity in Pulay matrix. Error and Fock matrices removed. 
  Singularity in Pulay matrix. Error and Fock matrices removed. 
  Singularity in Pulay matrix. Error and Fock matrices removed. 
  Singularity in Pulay matrix. Error and Fock matrices removed. 
 d= 0,ls=0.0,diis    15   -262.0911436110  1.36D-12  9.82D-08  4.29D-14   204.7
                                                     4.84D-08  4.29D-14


      Total SO-DFT energy =     -262.091143610978
      One electron energy =     -438.650356382199
           Coulomb energy =      195.403465030478
    Exchange-Corr. energy =      -18.844252259257
 Nuclear repulsion energy =        0.000000000000

 Numeric. integr. density =       22.999999999999

     Total iterative time =    208.9s



                       DFT Final Molecular Orbital Analysis
                       ------------------------------------

 Vector    1  Occ=1.000000D+00  E=-7.874223D+00
              MO Center=  1.5D-15, -5.3D-15,  4.0D-15, r^2= 1.1D-01
  Bfn.         Coefficient        Function           Bfn.         Coefficient        Function  
  ----     -------------------  ------------         ----     -------------------  ------------
     1    -0.804837   0.750252  1 At s                  2    -0.104145   0.097082  1 At s          
     7     0.092226  -0.085971  1 At s                  4    -0.045589   0.042497  1 At s          
     8     0.032927  -0.030694  1 At s                  9     0.026968  -0.025139  1 At s          

 Vector    2  Occ=1.000000D+00  E=-7.865890D+00
              MO Center=  2.3D-21, -1.7D-20, -1.1D-20, r^2= 8.6D-11
  Bfn.         Coefficient        Function           Bfn.         Coefficient        Function  
  ----     -------------------  ------------         ----     -------------------  ------------
   181    -0.134924   1.085208  1 At s                182    -0.016441   0.132238  1 At s          
   187     0.014924  -0.120034  1 At s                184    -0.006988   0.056202  1 At s          
   188     0.004982  -0.040070  1 At s                189     0.004369  -0.035136  1 At s          

 Vector    3  Occ=1.000000D+00  E=-6.037412D+00
              MO Center= -1.3D-15, -1.2D-15,  1.2D-15, r^2= 7.5D-02
  Bfn.         Coefficient        Function           Bfn.         Coefficient        Function  
  ----     -------------------  ------------         ----     -------------------  ------------
   199     1.682881  -0.012060  1 At pz                17    -1.679888   0.012039  1 At px         
    18     0.012039   1.679888  1 At py               202    -1.190742   0.008533  1 At pz         
    20     1.154631  -0.008275  1 At px                21    -0.008275  -1.154630  1 At py         
   196    -0.828945   0.005941  1 At pz                14     0.820219  -0.005878  1 At px         
    15    -0.005878  -0.820219  1 At py                36     0.002591   0.361550  1 At py         

 Vector    4  Occ=1.000000D+00  E=-6.034723D+00
              MO Center=  4.6D-16, -1.7D-15, -2.0D-15, r^2= 7.7D-02
  Bfn.         Coefficient        Function           Bfn.         Coefficient        Function  
  ----     -------------------  ------------         ----     -------------------  ------------
    19     1.692699   0.047605  1 At pz               197     1.676351   0.047145  1 At px         
   198    -0.047145   1.676350  1 At py               200    -1.189553  -0.033455  1 At px         
   201     0.033455  -1.189551  1 At py                22    -1.171355  -0.032943  1 At pz         
    16    -0.833164  -0.023432  1 At pz               194    -0.823924  -0.023172  1 At px         
   195     0.023172  -0.823924  1 At py                37     0.360842   0.010148  1 At pz         

 Vector    5  Occ=1.000000D+00  E=-4.927834D+00
              MO Center=  3.8D-16, -5.4D-16,  5.3D-16, r^2= 1.4D-01
  Bfn.         Coefficient        Function           Bfn.         Coefficient        Function  
  ----     -------------------  ------------         ----     -------------------  ------------
    17    -0.987306  -2.423293  1 At px                18     2.423288  -0.987304  1 At py         
    20     0.941358   2.310516  1 At px                21    -2.310510   0.941356  1 At py         
    14     0.803180   1.971363  1 At px                15    -1.971359   0.803178  1 At py         
    11     0.509778   1.251224  1 At px                12    -1.251221   0.509777  1 At py         
    41     0.194865   0.478285  1 At px                42    -0.478284   0.194864  1 At py         

 Vector    6  Occ=1.000000D+00  E=-4.926981D+00
              MO Center=  1.1D-15, -5.2D-15,  1.0D-15, r^2= 1.8D-01
  Bfn.         Coefficient        Function           Bfn.         Coefficient        Function  
  ----     -------------------  ------------         ----     -------------------  ------------
    19     3.006539   0.110817  1 At pz                22    -2.873402  -0.105909  1 At pz         
    16    -2.450585  -0.090325  1 At pz                13    -1.555887  -0.057348  1 At pz         
   197    -1.517958  -0.055950  1 At px               198     0.055950  -1.517958  1 At py         
   200     1.460883   0.053846  1 At px               201    -0.053846   1.460882  1 At py         
   194     1.234736   0.045511  1 At px               195    -0.045510   1.234735  1 At py         

 Vector    7  Occ=1.000000D+00  E=-4.926453D+00
              MO Center= -2.5D-16, -1.0D-15,  9.9D-16, r^2= 4.6D-02
  Bfn.         Coefficient        Function           Bfn.         Coefficient        Function  
  ----     -------------------  ------------         ----     -------------------  ------------
   199    -3.016435   0.060159  1 At pz               202     2.904278  -0.057922  1 At pz         
   196     2.460534  -0.049072  1 At pz               193     1.556793  -0.031048  1 At pz         
    18     0.030139   1.511194  1 At py                17    -1.511187   0.030139  1 At px         
    21    -0.028741  -1.441118  1 At py                20     1.441112  -0.028741  1 At px         
    15    -0.024501  -1.228529  1 At py                14     1.228523  -0.024501  1 At px         

 Vector    8  Occ=1.000000D+00  E=-4.919336D+00
              MO Center= -3.8D-21, -1.8D-21, -2.0D-21, r^2= 6.7D-10
  Bfn.         Coefficient        Function           Bfn.         Coefficient        Function  
  ----     -------------------  ------------         ----     -------------------  ------------
   197     2.614330  -0.096490  1 At px               198    -0.096490  -2.614328  1 At py         
   200    -2.518333   0.092947  1 At px               201     0.092947   2.518329  1 At py         
   194    -2.130865   0.078646  1 At px               195     0.078646   2.130863  1 At py         
   191    -1.348101   0.049756  1 At px               192     0.049756   1.348100  1 At py         
   221    -0.525552   0.019397  1 At px               222     0.019397   0.525551  1 At py         

 Vector    9  Occ=1.000000D+00  E=-2.324817D+00
              MO Center=  3.1D-16, -1.4D-15,  1.3D-15, r^2= 1.2D-01
  Bfn.         Coefficient        Function           Bfn.         Coefficient        Function  
  ----     -------------------  ------------         ----     -------------------  ------------
   229    -0.465225  -0.231553  1 At d  0              48     0.190068  -0.381875  1 At d -1       
    50    -0.381875  -0.190068  1 At d  1              53     0.067226  -0.135068  1 At d -1       
    55    -0.135068  -0.067226  1 At d  1             234    -0.103239  -0.051385  1 At d  0       

 Vector   10  Occ=1.000000D+00  E=-2.323327D+00
              MO Center=  1.1D-16, -1.3D-15,  1.0D-15, r^2= 1.1D-01
  Bfn.         Coefficient        Function           Bfn.         Coefficient        Function  
  ----     -------------------  ------------         ----     -------------------  ------------
    49    -0.381492   0.303911  1 At d  0             228    -0.281758  -0.353684  1 At d -1       
   230     0.353684  -0.281758  1 At d  1              54    -0.154137   0.122791  1 At d  0       
   233    -0.058982  -0.074039  1 At d -1             235     0.074039  -0.058982  1 At d  1       

 Vector   11  Occ=1.000000D+00  E=-2.321195D+00
              MO Center=  7.3D-16, -2.4D-15,  1.3D-15, r^2= 1.6D-01
  Bfn.         Coefficient        Function           Bfn.         Coefficient        Function  
  ----     -------------------  ------------         ----     -------------------  ------------
    47     0.490705  -0.052766  1 At d -2              51     0.052766   0.490705  1 At d  2       
   230     0.027867   0.259148  1 At d  1             228    -0.259147   0.027866  1 At d -1       
    56     0.017740   0.164976  1 At d  2              52     0.164976  -0.017740  1 At d -2       
   235     0.006329   0.058855  1 At d  1             233    -0.058855   0.006329  1 At d -1       

 Vector   12  Occ=1.000000D+00  E=-2.315777D+00
              MO Center=  3.8D-16, -6.2D-16,  7.3D-17, r^2= 4.8D-02
  Bfn.         Coefficient        Function           Bfn.         Coefficient        Function  
  ----     -------------------  ------------         ----     -------------------  ------------
   227     0.288035  -0.441206  1 At d -2             231    -0.441206  -0.288035  1 At d  2       
    50     0.201948   0.131839  1 At d  1              48     0.131839  -0.201948  1 At d -1       
    55     0.099495   0.064954  1 At d  1              53     0.064954  -0.099495  1 At d -1       
   236    -0.089615  -0.058504  1 At d  2             232     0.058504  -0.089615  1 At d -2       

 Vector   13  Occ=1.000000D+00  E=-2.178276D+00
              MO Center=  8.1D-16, -2.4D-15,  8.4D-16, r^2= 2.2D-01
  Bfn.         Coefficient        Function           Bfn.         Coefficient        Function  
  ----     -------------------  ------------         ----     -------------------  ------------
    54    -0.935530   0.238850  1 At d  0             233     0.134123   0.525333  1 At d -1       
   235    -0.525332   0.134123  1 At d  1              49     0.176676  -0.045107  1 At d  0       
   228    -0.014460  -0.056636  1 At d -1             230     0.056636  -0.014460  1 At d  1       

 Vector   14  Occ=1.000000D+00  E=-2.178095D+00
              MO Center=  6.2D-16, -1.7D-15,  1.3D-15, r^2= 1.6D-01
  Bfn.         Coefficient        Function           Bfn.         Coefficient        Function  
  ----     -------------------  ------------         ----     -------------------  ------------
    53     0.239066  -0.749514  1 At d -1              55     0.749512   0.239066  1 At d  1       
   232    -0.116271   0.364530  1 At d -2             236     0.364530   0.116271  1 At d  2       
    48    -0.043960   0.137823  1 At d -1              50    -0.137823  -0.043960  1 At d  1       

 Vector   15  Occ=1.000000D+00  E=-2.177824D+00
              MO Center=  2.7D-16, -1.5D-15,  1.8D-15, r^2= 2.1D-01
  Bfn.         Coefficient        Function           Bfn.         Coefficient        Function  
  ----     -------------------  ------------         ----     -------------------  ------------
    52    -0.649470  -0.600806  1 At d -2              56    -0.600806   0.649470  1 At d  2       
    47     0.108386   0.100265  1 At d -2              51     0.100265  -0.108386  1 At d  2       

 Vector   16  Occ=1.000000D+00  E=-2.176985D+00
              MO Center=  3.5D-16, -8.7D-16,  3.4D-16, r^2= 8.0D-02
  Bfn.         Coefficient        Function           Bfn.         Coefficient        Function  
  ----     -------------------  ------------         ----     -------------------  ------------
   234     0.939642  -0.007497  1 At d  0              55    -0.557375   0.004447  1 At d  1       
    53    -0.004447  -0.557372  1 At d -1             229    -0.123376   0.000984  1 At d  0       
    50     0.102893  -0.000821  1 At d  1              48     0.000821   0.102893  1 At d -1       

 Vector   17  Occ=1.000000D+00  E=-2.172961D+00
              MO Center=  1.3D-16, -4.0D-16,  3.5D-16, r^2= 4.0D-02
  Bfn.         Coefficient        Function           Bfn.         Coefficient        Function  
  ----     -------------------  ------------         ----     -------------------  ------------
   235     0.424245  -0.635387  1 At d  1             233     0.635386   0.424244  1 At d -1       
    52     0.328889   0.219598  1 At d -2              56    -0.219598   0.328889  1 At d  2       
   230    -0.058655   0.087847  1 At d  1             228    -0.087847  -0.058655  1 At d -1       
    47    -0.059334  -0.039617  1 At d -2              51     0.039617  -0.059334  1 At d  2       

 Vector   18  Occ=1.000000D+00  E=-2.165377D+00
              MO Center= -1.8D-20,  1.6D-21,  1.9D-22, r^2= 2.2D-09
  Bfn.         Coefficient        Function           Bfn.         Coefficient        Function  
  ----     -------------------  ------------         ----     -------------------  ------------
   232     0.218496   0.819493  1 At d -2             236    -0.819493   0.218496  1 At d  2       
   227    -0.029818  -0.111835  1 At d -2             231     0.111835  -0.029818  1 At d  2       

 Vector   19  Occ=1.000000D+00  E=-1.438779D+00
              MO Center=  2.2D-14, -3.9D-14,  2.9D-14, r^2= 6.3D-01
  Bfn.         Coefficient        Function           Bfn.         Coefficient        Function  
  ----     -------------------  ------------         ----     -------------------  ------------
     2    -0.721628  -0.642699  1 At s                  7    -0.208673  -0.185849  1 At s          
     9     0.105428   0.093897  1 At s                  1     0.055708   0.049615  1 At s          
     4     0.037992   0.033837  1 At s                 54    -0.030964  -0.027577  1 At d  0       
     6     0.027241   0.024261  1 At s                 49     0.026692   0.023773  1 At d  0       
     8     0.026297   0.023421  1 At s          

 Vector   20  Occ=1.000000D+00  E=-1.373958D+00
              MO Center=  2.2D-18,  3.7D-19, -1.9D-18, r^2= 1.0D-06
  Bfn.         Coefficient        Function           Bfn.         Coefficient        Function  
  ----     -------------------  ------------         ----     -------------------  ------------
   182    -0.990846  -0.169356  1 At s                187    -0.195373  -0.033393  1 At s          
   189     0.147909   0.025281  1 At s                181     0.064295   0.010989  1 At s          
   188     0.049228   0.008414  1 At s                186    -0.046970  -0.008028  1 At s          
   184     0.042603   0.007282  1 At s          

 Vector   21  Occ=1.000000D+00  E=-9.913220D-01
              MO Center= -9.8D-15, -9.1D-15,  7.2D-15, r^2= 6.0D-01
  Bfn.         Coefficient        Function           Bfn.         Coefficient        Function  
  ----     -------------------  ------------         ----     -------------------  ------------
    18    -0.036683   0.997886  1 At py                17    -0.997885  -0.036683  1 At px         
   199     0.766964   0.028194  1 At pz                20    -0.434651  -0.015978  1 At px         
    21    -0.015978   0.434644  1 At py                38    -0.350289  -0.012877  1 At px         
    39    -0.012877   0.350287  1 At py               202     0.318902   0.011723  1 At pz         
    41    -0.316267  -0.011626  1 At px                42    -0.011626   0.316264  1 At py         

 Vector   22  Occ=1.000000D+00  E=-9.726373D-01
              MO Center=  4.7D-15, -1.3D-14, -2.2D-14, r^2= 8.5D-01
  Bfn.         Coefficient        Function           Bfn.         Coefficient        Function  
  ----     -------------------  ------------         ----     -------------------  ------------
    19    -1.150674   0.009645  1 At pz               198    -0.006470  -0.771874  1 At py         
   197    -0.771873   0.006470  1 At px                22    -0.467388   0.003918  1 At pz         
    40    -0.373349   0.003130  1 At pz                43    -0.351473   0.002946  1 At pz         
    13     0.328564  -0.002754  1 At pz               200    -0.292135   0.002449  1 At px         
   201    -0.002449  -0.292129  1 At py                37    -0.288022   0.002414  1 At pz         

 Vector   23  Occ=1.000000D+00  E=-8.630409D-01
              MO Center= -8.5D-15, -1.4D-14,  1.2D-14, r^2= 9.3D-01
  Bfn.         Coefficient        Function           Bfn.         Coefficient        Function  
  ----     -------------------  ------------         ----     -------------------  ------------
    18     0.150104  -0.860017  1 At py                17    -0.860015  -0.150104  1 At px         
    15    -0.081665   0.467896  1 At py                14     0.467894   0.081664  1 At px         
    12    -0.078987   0.452556  1 At py                11     0.452556   0.078987  1 At px         
    41    -0.166896  -0.029129  1 At px                42     0.029129  -0.166893  1 At py         
    26     0.126511   0.022081  1 At px                27    -0.022081   0.126511  1 At py         

 Vector   24  Occ=0.000000D+00  E=-7.560041D-01
              MO Center=  9.2D-15, -2.3D-14,  9.5D-15, r^2= 9.2D-01
  Bfn.         Coefficient        Function           Bfn.         Coefficient        Function  
  ----     -------------------  ------------         ----     -------------------  ------------
    19     0.780215  -0.003272  1 At pz               198    -0.002722  -0.649004  1 At py         
   197    -0.649003   0.002722  1 At px                16    -0.516045   0.002164  1 At pz         
    13    -0.478367   0.002006  1 At pz               195     0.001160   0.276679  1 At py         
   194     0.276678  -0.001160  1 At px               191     0.268923  -0.001128  1 At px         
   192     0.001128   0.268923  1 At py                43     0.135658  -0.000569  1 At pz         

 Vector   25  Occ=0.000000D+00  E=-7.512729D-01
              MO Center=  9.6D-16, -5.8D-15,  4.0D-15, r^2= 2.2D-01
  Bfn.         Coefficient        Function           Bfn.         Coefficient        Function  
  ----     -------------------  ------------         ----     -------------------  ------------
   199     1.065233  -0.026197  1 At pz               196    -0.552391   0.013585  1 At pz         
   193    -0.507976   0.012492  1 At pz                18    -0.009009  -0.366352  1 At py         
    17     0.366351  -0.009009  1 At px                15     0.006449   0.262233  1 At py         
    14    -0.262231   0.006449  1 At px                12     0.005716   0.232445  1 At py         
    11    -0.232444   0.005716  1 At px               223     0.161527  -0.003972  1 At pz         

 Vector   26  Occ=0.000000D+00  E=-7.252364D-01
              MO Center=  2.2D-20, -2.6D-19, -8.7D-19, r^2= 8.4D-07
  Bfn.         Coefficient        Function           Bfn.         Coefficient        Function  
  ----     -------------------  ------------         ----     -------------------  ------------
   198    -0.002535   0.809944  1 At py               197    -0.809941  -0.002535  1 At px         
   195     0.001490  -0.476094  1 At py               194     0.476092   0.001490  1 At px         
   192     0.001290  -0.412329  1 At py               191     0.412328   0.001290  1 At px         
   207     0.000344  -0.109827  1 At py               206     0.109827   0.000344  1 At px         
   221    -0.101100  -0.000316  1 At px               222    -0.000316   0.101098  1 At py         

 Vector   27  Occ=0.000000D+00  E=-3.868886D-01
              MO Center=  9.2D-14, -2.6D-13,  1.6D-13, r^2= 6.0D+00
  Bfn.         Coefficient        Function           Bfn.         Coefficient        Function  
  ----     -------------------  ------------         ----     -------------------  ------------
     9    -1.305731  -0.275517  1 At s                  8     0.659899   0.139242  1 At s          
     2     0.614151   0.129589  1 At s                 10    -0.511596  -0.107950  1 At s          
     7     0.092385   0.019494  1 At s                  1     0.067688   0.014283  1 At s          
     6     0.058268   0.012295  1 At s                  5    -0.026589  -0.005611  1 At s          

 Vector   28  Occ=0.000000D+00  E=-3.652387D-01
              MO Center=  6.6D-17, -4.9D-18,  5.2D-16, r^2= 1.1D-03
  Bfn.         Coefficient        Function           Bfn.         Coefficient        Function  
  ----     -------------------  ------------         ----     -------------------  ------------
   189    -1.182874  -0.221183  1 At s                188     0.646206   0.120833  1 At s          
   190    -0.580270  -0.108503  1 At s                182     0.543173   0.101566  1 At s          
   187     0.123893   0.023166  1 At s                186     0.051179   0.009570  1 At s          
   264    -0.049530  -0.009261  1 At d  0             181     0.039969   0.007474  1 At s          
   185    -0.031222  -0.005838  1 At s                269    -0.029216  -0.005463  1 At d  0       

 Vector   29  Occ=0.000000D+00  E=-3.502864D-01
              MO Center=  2.9D-14, -9.0D-14,  2.9D-14, r^2= 2.2D+00
  Bfn.         Coefficient        Function           Bfn.         Coefficient        Function  
  ----     -------------------  ------------         ----     -------------------  ------------
    86    -0.334801  -0.201881  1 At d  2              82    -0.201881   0.334801  1 At d -2       
    91    -0.203796  -0.122887  1 At d  2              87    -0.122887   0.203796  1 At d -2       
    52     0.097840  -0.162258  1 At d -2              56     0.162258   0.097840  1 At d  2       
    77    -0.091623   0.151949  1 At d -2              81    -0.151949  -0.091623  1 At d  2       
   228    -0.070116   0.116280  1 At d -1             230     0.116280   0.070116  1 At d  1       

 Vector   30  Occ=0.000000D+00  E=-3.490885D-01
              MO Center=  3.4D-14, -4.0D-14,  7.3D-14, r^2= 2.1D+00
  Bfn.         Coefficient        Function           Bfn.         Coefficient        Function  
  ----     -------------------  ------------         ----     -------------------  ------------
    83     0.018775   0.387186  1 At d -1              85     0.387186  -0.018775  1 At d  1       
   229    -0.258659   0.012542  1 At d  0              88     0.011485   0.236855  1 At d -1       
    90     0.236855  -0.011485  1 At d  1              53    -0.010443  -0.215361  1 At d -1       
    55    -0.215361   0.010443  1 At d  1             234     0.214390  -0.010396  1 At d  0       
    78     0.008242   0.169966  1 At d -1              80     0.169966  -0.008242  1 At d  1       

 Vector   31  Occ=0.000000D+00  E=-3.475674D-01
              MO Center=  1.3D-14, -2.6D-14,  3.0D-14, r^2= 1.1D+00
  Bfn.         Coefficient        Function           Bfn.         Coefficient        Function  
  ----     -------------------  ------------         ----     -------------------  ------------
    84     0.278753   0.469541  1 At d  0              54    -0.178227  -0.300211  1 At d  0       
    89     0.172105   0.289900  1 At d  0              79     0.119866   0.201906  1 At d  0       
   230     0.103533   0.174395  1 At d  1             228     0.174395  -0.103533  1 At d -1       
   235    -0.085331  -0.143735  1 At d  1             233    -0.143735   0.085331  1 At d -1       
   263    -0.081544   0.048410  1 At d -1             265    -0.048410  -0.081544  1 At d  1       

 Vector   32  Occ=0.000000D+00  E=-3.466229D-01
              MO Center=  4.9D-14, -7.2D-14,  5.7D-14, r^2= 2.2D+00
  Bfn.         Coefficient        Function           Bfn.         Coefficient        Function  
  ----     -------------------  ------------         ----     -------------------  ------------
    85    -0.263448  -0.288442  1 At d  1              83    -0.288442   0.263447  1 At d -1       
    55     0.226048   0.247494  1 At d  1              53     0.247494  -0.226048  1 At d -1       
    90    -0.165319  -0.181004  1 At d  1              88    -0.181004   0.165319  1 At d -1       
   227     0.131248  -0.119875  1 At d -2             231    -0.119875  -0.131248  1 At d  2       
    80    -0.112460  -0.123129  1 At d  1              78    -0.123129   0.112460  1 At d -1       

 Vector   33  Occ=0.000000D+00  E=-3.451058D-01
              MO Center=  2.2D-14, -6.0D-14,  2.6D-14, r^2= 2.3D+00
  Bfn.         Coefficient        Function           Bfn.         Coefficient        Function  
  ----     -------------------  ------------         ----     -------------------  ------------
    52     0.283728   0.325812  1 At d -2              56     0.325812  -0.283727  1 At d  2       
    82    -0.260373  -0.298993  1 At d -2              86    -0.298993   0.260373  1 At d  2       
    91    -0.191983   0.167185  1 At d  2              87    -0.167185  -0.191983  1 At d -2       
    47    -0.115056  -0.132123  1 At d -2              51    -0.132123   0.115056  1 At d  2       
    77    -0.111677  -0.128242  1 At d -2              81    -0.128242   0.111677  1 At d  2       

 Vector   34  Occ=0.000000D+00  E=-3.156190D-01
              MO Center= -3.4D-15, -1.8D-15,  4.1D-15, r^2= 1.3D-01
  Bfn.         Coefficient        Function           Bfn.         Coefficient        Function  
  ----     -------------------  ------------         ----     -------------------  ------------
   263    -0.279193   0.230529  1 At d -1             265    -0.230529  -0.279193  1 At d  1       
   268    -0.217161   0.179310  1 At d -1             270    -0.179309  -0.217161  1 At d  1       
   228     0.207848  -0.171619  1 At d -1             230     0.171619   0.207848  1 At d  1       
    54     0.170481   0.206469  1 At d  0              49    -0.115603  -0.140007  1 At d  0       
   258    -0.110408   0.091163  1 At d -1             260    -0.091163  -0.110407  1 At d  1       

 Vector   35  Occ=0.000000D+00  E=-3.150854D-01
              MO Center= -1.1D-15, -2.3D-15, -1.9D-15, r^2= 1.3D-01
  Bfn.         Coefficient        Function           Bfn.         Coefficient        Function  
  ----     -------------------  ------------         ----     -------------------  ------------
   264    -0.514163   0.002548  1 At d  0             269    -0.403332   0.001999  1 At d  0       
   229     0.314941  -0.001561  1 At d  0             259    -0.200338   0.000993  1 At d  0       
    53    -0.000867  -0.174944  1 At d -1              55    -0.174944   0.000867  1 At d  1       
    48     0.000594   0.119966  1 At d -1              50     0.119966  -0.000594  1 At d  1       
   234    -0.085844   0.000425  1 At d  0              83     0.000402   0.081159  1 At d -1       

 Vector   36  Occ=0.000000D+00  E=-3.125323D-01
              MO Center= -8.6D-15,  5.3D-15,  3.7D-15, r^2= 1.0D-01
  Bfn.         Coefficient        Function           Bfn.         Coefficient        Function  
  ----     -------------------  ------------         ----     -------------------  ------------
   266    -0.293413  -0.211584  1 At d  2             262     0.211584  -0.293413  1 At d -2       
   227    -0.205176   0.284526  1 At d -2             231     0.284526   0.205176  1 At d  2       
   267     0.168199  -0.233249  1 At d -2             271    -0.233249  -0.168199  1 At d  2       
   232     0.116886  -0.162092  1 At d -2             236    -0.162092  -0.116886  1 At d  2       
    55     0.133334   0.096149  1 At d  1              53     0.096149  -0.133334  1 At d -1       

 Vector   37  Occ=0.000000D+00  E=-3.116974D-01
              MO Center=  2.0D-16, -2.4D-15,  6.3D-16, r^2= 5.9D-02
  Bfn.         Coefficient        Function           Bfn.         Coefficient        Function  
  ----     -------------------  ------------         ----     -------------------  ------------
   265    -0.150788   0.333564  1 At d  1             263    -0.333563  -0.150788  1 At d -1       
   270    -0.122692   0.271411  1 At d  1             268    -0.271410  -0.122692  1 At d -1       
   230     0.081108  -0.179421  1 At d  1             228     0.179421   0.081108  1 At d -1       
   260    -0.057796   0.127853  1 At d  1             258    -0.127853  -0.057796  1 At d -1       
    52     0.117733   0.053221  1 At d -2              56    -0.053221   0.117732  1 At d  2       

 Vector   38  Occ=0.000000D+00  E=-3.041770D-01
              MO Center=  4.3D-19,  1.2D-19, -1.0D-20, r^2= 6.6D-08
  Bfn.         Coefficient        Function           Bfn.         Coefficient        Function  
  ----     -------------------  ------------         ----     -------------------  ------------
   266     0.311677  -0.181401  1 At d  2             262    -0.181401  -0.311677  1 At d -2       
   267    -0.159190  -0.273515  1 At d -2             271     0.273515  -0.159190  1 At d  2       
   227     0.096962   0.166597  1 At d -2             231    -0.166597   0.096962  1 At d  2       
   261     0.117795  -0.068559  1 At d  2             257    -0.068559  -0.117795  1 At d -2       
   232    -0.017765  -0.030524  1 At d -2             236     0.030524  -0.017765  1 At d  2       

 Vector   39  Occ=0.000000D+00  E=-2.867709D-01
              MO Center= -6.3D-14,  1.4D-14, -2.6D-14, r^2= 3.7D+00
  Bfn.         Coefficient        Function           Bfn.         Coefficient        Function  
  ----     -------------------  ------------         ----     -------------------  ------------
    41     0.683139   0.019651  1 At px                42     0.019651  -0.683139  1 At py         
    18     0.012926  -0.449344  1 At py                17     0.449344   0.012926  1 At px         
   223    -0.402111  -0.011567  1 At pz               199    -0.270933  -0.007794  1 At pz         
    45     0.005403  -0.187821  1 At py                44     0.187820   0.005403  1 At px         
   226    -0.114075  -0.003282  1 At pz                11    -0.098164  -0.002824  1 At px         

 Vector   40  Occ=0.000000D+00  E=-2.815558D-01
              MO Center= -4.6D-15,  1.6D-15, -1.8D-13, r^2= 6.3D+00
  Bfn.         Coefficient        Function           Bfn.         Coefficient        Function  
  ----     -------------------  ------------         ----     -------------------  ------------
    43    -0.845436   0.009747  1 At pz                19    -0.528002   0.006087  1 At pz         
   221    -0.393551   0.004537  1 At px               222    -0.004537  -0.393551  1 At py         
    46    -0.264120   0.003045  1 At pz               198    -0.003033  -0.263091  1 At py         
   197    -0.263091   0.003033  1 At px                13     0.139042  -0.001603  1 At pz         
    16     0.131543  -0.001516  1 At pz               225    -0.001377  -0.119450  1 At py         

 Vector   41  Occ=0.000000D+00  E=-2.656051D-01
              MO Center= -4.8D-14, -1.8D-14, -4.2D-15, r^2= 5.1D+00
  Bfn.         Coefficient        Function           Bfn.         Coefficient        Function  
  ----     -------------------  ------------         ----     -------------------  ------------
    41     0.727348   0.074532  1 At px                42    -0.074532   0.727347  1 At py         
    18    -0.040705   0.397239  1 At py                17     0.397239   0.040705  1 At px         
    44     0.294279   0.030155  1 At px                45    -0.030155   0.294279  1 At py         
    11    -0.209186  -0.021436  1 At px                12     0.021436  -0.209186  1 At py         
    15     0.020276  -0.197870  1 At py                14    -0.197869  -0.020276  1 At px         

 Vector   42  Occ=0.000000D+00  E=-2.549436D-01
              MO Center= -3.3D-15, -2.5D-14, -4.2D-14, r^2= 3.5D+00
  Bfn.         Coefficient        Function           Bfn.         Coefficient        Function  
  ----     -------------------  ------------         ----     -------------------  ------------
   221    -0.547723   0.003652  1 At px               222    -0.003652  -0.547723  1 At py         
    43     0.540850  -0.003606  1 At pz               198    -0.002162  -0.324249  1 At py         
   197    -0.324248   0.002162  1 At px                46     0.279798  -0.001866  1 At pz         
    19     0.276646  -0.001844  1 At pz               225    -0.001836  -0.275298  1 At py         
   224    -0.275298   0.001835  1 At px                16    -0.205185   0.001368  1 At pz         

 Vector   43  Occ=0.000000D+00  E=-2.537997D-01
              MO Center= -5.7D-15, -8.7D-15,  4.1D-16, r^2= 9.3D-01
  Bfn.         Coefficient        Function           Bfn.         Coefficient        Function  
  ----     -------------------  ------------         ----     -------------------  ------------
   223     0.838856  -0.006398  1 At pz               199     0.475632  -0.003628  1 At pz         
   226     0.444516  -0.003390  1 At pz                41     0.286222  -0.002183  1 At px         
    42    -0.002183  -0.286221  1 At py               196    -0.218280   0.001665  1 At pz         
   193    -0.216024   0.001648  1 At pz                44     0.146432  -0.001117  1 At px         
    45    -0.001117  -0.146432  1 At py                18    -0.001110  -0.145560  1 At py         

 Vector   44  Occ=0.000000D+00  E=-2.466474D-01
              MO Center= -2.0D-18,  7.3D-19, -2.9D-18, r^2= 9.4D-07
  Bfn.         Coefficient        Function           Bfn.         Coefficient        Function  
  ----     -------------------  ------------         ----     -------------------  ------------
   221     0.626630   0.003422  1 At px               222     0.003422  -0.626629  1 At py         
   224     0.380829   0.002080  1 At px               225     0.002080  -0.380828  1 At py         
   198     0.001925  -0.352559  1 At py               197     0.352559   0.001925  1 At px         
   191    -0.183678  -0.001003  1 At px               192    -0.001003   0.183678  1 At py         
   195    -0.000987   0.180753  1 At py               194    -0.180752  -0.000987  1 At px         

 Vector   45  Occ=0.000000D+00  E=-1.533164D-01
              MO Center= -3.2D-14,  5.2D-15, -4.7D-14, r^2= 2.0D+00
  Bfn.         Coefficient        Function           Bfn.         Coefficient        Function  
  ----     -------------------  ------------         ----     -------------------  ------------
   129     0.185682  -0.523242  1 At f -1             131     0.523235   0.185680  1 At f  1       
   115     0.067405  -0.189944  1 At f -1             117     0.189942   0.067404  1 At f  1       
   108     0.020945  -0.059021  1 At f -1             110     0.059020   0.020944  1 At f  1       
   122     0.015221  -0.042891  1 At f -1             124     0.042891   0.015221  1 At f  1       
    21    -0.011489   0.032376  1 At py                20     0.032375   0.011489  1 At px         

 Vector   46  Occ=0.000000D+00  E=-1.532091D-01
              MO Center= -1.1D-14,  3.2D-14, -1.1D-13, r^2= 3.9D+00
  Bfn.         Coefficient        Function           Bfn.         Coefficient        Function  
  ----     -------------------  ------------         ----     -------------------  ------------
   130     0.783965  -0.001326  1 At f  0             116     0.285137  -0.000482  1 At f  0       
   109     0.089553  -0.000151  1 At f  0             123     0.064506  -0.000109  1 At f  0       
    22    -0.059700   0.000101  1 At pz                37    -0.047621   0.000081  1 At pz         
   309     0.000065   0.038473  1 At f -1             311    -0.038473   0.000065  1 At f  1       
    43    -0.031093   0.000053  1 At pz                19    -0.030501   0.000052  1 At pz         

 Vector   47  Occ=0.000000D+00  E=-1.531771D-01
              MO Center= -1.3D-14,  3.3D-14, -2.6D-14, r^2= 2.0D+00
  Bfn.         Coefficient        Function           Bfn.         Coefficient        Function  
  ----     -------------------  ------------         ----     -------------------  ------------
   132    -0.556617  -0.000002  1 At f  2             128     0.000002  -0.556617  1 At f -2       
   118    -0.201481  -0.000001  1 At f  2             114     0.000001  -0.201481  1 At f -2       
   111    -0.061537  -0.000000  1 At f  2             107     0.000000  -0.061537  1 At f -2       
   125    -0.045312  -0.000000  1 At f  2             121     0.000000  -0.045312  1 At f -2       

 Vector   48  Occ=0.000000D+00  E=-1.531451D-01
              MO Center= -2.6D-14, -2.4D-15, -5.0D-14, r^2= 2.0D+00
  Bfn.         Coefficient        Function           Bfn.         Coefficient        Function  
  ----     -------------------  ------------         ----     -------------------  ------------
   131     0.548130  -0.084409  1 At f  1             129     0.084408   0.548123  1 At f -1       
   117     0.199484  -0.030719  1 At f  1             115     0.030719   0.199481  1 At f -1       
   110     0.062762  -0.009665  1 At f  1             108     0.009665   0.062762  1 At f -1       
   310     0.051782  -0.007974  1 At f  0             124     0.044797  -0.006898  1 At f  1       
   122     0.006898   0.044796  1 At f -1              20     0.035985  -0.005541  1 At px         

 Vector   49  Occ=0.000000D+00  E=-1.528370D-01
              MO Center= -1.4D-14,  3.8D-14, -2.6D-14, r^2= 2.0D+00
  Bfn.         Coefficient        Function           Bfn.         Coefficient        Function  
  ----     -------------------  ------------         ----     -------------------  ------------
   128    -0.000652   0.555495  1 At f -2             132    -0.555495  -0.000652  1 At f  2       
   114    -0.000237   0.202091  1 At f -2             118    -0.202091  -0.000237  1 At f  2       
   107    -0.000074   0.063291  1 At f -2             111    -0.063291  -0.000074  1 At f  2       
   121    -0.000053   0.044952  1 At f -2             125    -0.044952  -0.000053  1 At f  2       
   311    -0.030121  -0.000035  1 At f  1             309     0.000035  -0.030121  1 At f -1       

 Vector   50  Occ=0.000000D+00  E=-1.523559D-01
              MO Center= -2.1D-14,  5.8D-14,  8.5D-15, r^2= 2.0D+00
  Bfn.         Coefficient        Function           Bfn.         Coefficient        Function  
  ----     -------------------  ------------         ----     -------------------  ------------
   127     0.475015   0.293637  1 At f -3             133    -0.293637   0.475015  1 At f  3       
   113     0.171176   0.105815  1 At f -3             119    -0.105815   0.171176  1 At f  3       
   106     0.051163   0.031627  1 At f -3             112    -0.031627   0.051163  1 At f  3       
   120     0.038163   0.023591  1 At f -3             126    -0.023591   0.038163  1 At f  3       

 Vector   51  Occ=0.000000D+00  E=-1.518548D-01
              MO Center= -2.3D-14,  6.2D-14,  8.1D-15, r^2= 2.0D+00
  Bfn.         Coefficient        Function           Bfn.         Coefficient        Function  
  ----     -------------------  ------------         ----     -------------------  ------------
   133    -0.032072   0.555971  1 At f  3             127    -0.555971  -0.032072  1 At f -3       
   119    -0.011645   0.201870  1 At f  3             113    -0.201870  -0.011645  1 At f -3       
   112    -0.003616   0.062677  1 At f  3             106    -0.062677  -0.003616  1 At f -3       
   126    -0.002554   0.044281  1 At f  3             120    -0.044281  -0.002554  1 At f -3       

 Vector   52  Occ=0.000000D+00  E=-1.495364D-01
              MO Center= -1.6D-14, -1.1D-12,  3.7D-13, r^2= 1.3D+01
  Bfn.         Coefficient        Function           Bfn.         Coefficient        Function  
  ----     -------------------  ------------         ----     -------------------  ------------
     9    -4.710130  -1.146119  1 At s                 10     2.529508   0.615507  1 At s          
     8     2.342996   0.570123  1 At s                  7    -1.300888  -0.316546  1 At s          
     2     0.990887   0.241113  1 At s                  6     0.561376   0.136600  1 At s          
     1     0.313079   0.076182  1 At s                  4     0.150874   0.036712  1 At s          
     5    -0.049287  -0.011993  1 At s                  3    -0.047664  -0.011598  1 At s          

 Vector   53  Occ=0.000000D+00  E=-1.391376D-01
              MO Center= -8.3D-18, -1.3D-18,  7.7D-17, r^2= 1.8D-06
  Bfn.         Coefficient        Function           Bfn.         Coefficient        Function  
  ----     -------------------  ------------         ----     -------------------  ------------
   189    -5.003408  -0.115590  1 At s                188     2.630481   0.060770  1 At s          
   190     2.613844   0.060385  1 At s                187    -1.554180  -0.035905  1 At s          
   182     1.058189   0.024446  1 At s                186     0.660251   0.015253  1 At s          
   181     0.342582   0.007914  1 At s                234     0.234128   0.005409  1 At d  0       
   229    -0.192318  -0.004443  1 At d  0             184     0.167843   0.003878  1 At s          

 Vector   54  Occ=0.000000D+00  E=-1.300935D-01
              MO Center= -5.2D-14, -7.9D-14, -1.1D-13, r^2= 8.5D+00
  Bfn.         Coefficient        Function           Bfn.         Coefficient        Function  
  ----     -------------------  ------------         ----     -------------------  ------------
    42    -0.001328   1.849478  1 At py                41    -1.849477  -0.001328  1 At px         
   223     1.382352   0.000993  1 At pz                21    -0.000929   1.293091  1 At py         
    20    -1.293090  -0.000929  1 At px                45     0.000798  -1.111850  1 At py         
    44     1.111849   0.000798  1 At px               202     1.028015   0.000738  1 At pz         
   226    -0.825048  -0.000592  1 At pz                36    -0.000545   0.759638  1 At py         

 Vector   55  Occ=0.000000D+00  E=-1.281092D-01
              MO Center=  1.4D-14, -1.9D-14, -1.9D-13, r^2= 1.3D+01
  Bfn.         Coefficient        Function           Bfn.         Coefficient        Function  
  ----     -------------------  ------------         ----     -------------------  ------------
    43    -2.331954   0.026627  1 At pz                22    -1.634878   0.018668  1 At pz         
    46     1.369588  -0.015638  1 At pz               222    -0.015597  -1.365942  1 At py         
   221    -1.365942   0.015597  1 At px               200    -1.044679   0.011929  1 At px         
   201    -0.011929  -1.044679  1 At py                37    -0.955361   0.010909  1 At pz         
   225     0.009076   0.794835  1 At py               224     0.794835  -0.009076  1 At px         

 Vector   56  Occ=0.000000D+00  E=-1.249768D-01
              MO Center= -9.3D-16, -1.1D-15, -1.5D-15, r^2= 8.6D-02
  Bfn.         Coefficient        Function           Bfn.         Coefficient        Function  
  ----     -------------------  ------------         ----     -------------------  ------------
   310    -0.817999  -0.115661  1 At f  0             296    -0.269292  -0.038077  1 At f  0       
    42    -0.026002   0.183895  1 At py                41    -0.183894  -0.026002  1 At px         
    21    -0.018669   0.132034  1 At py                20    -0.132034  -0.018669  1 At px         
    45     0.014720  -0.104104  1 At py                44     0.104104   0.014720  1 At px         
   289    -0.085286  -0.012059  1 At f  0              36    -0.010907   0.077140  1 At py         

 Vector   57  Occ=0.000000D+00  E=-1.243753D-01
              MO Center= -2.0D-15, -3.6D-16,  1.4D-16, r^2= 3.0D-01
  Bfn.         Coefficient        Function           Bfn.         Coefficient        Function  
  ----     -------------------  ------------         ----     -------------------  ------------
   309     0.000737   0.581392  1 At f -1             311    -0.581388   0.000737  1 At f  1       
    43    -0.361261   0.000458  1 At pz                22    -0.257080   0.000326  1 At pz         
    46     0.203725  -0.000258  1 At pz               295     0.000243   0.191627  1 At f -1       
   297    -0.191626   0.000243  1 At f  1              37    -0.149495   0.000190  1 At pz         
   221    -0.130293   0.000165  1 At px               222    -0.000165  -0.130293  1 At py         

 Vector   58  Occ=0.000000D+00  E=-1.235669D-01
              MO Center= -6.4D-16,  3.2D-17,  1.1D-16, r^2= 8.0D-03
  Bfn.         Coefficient        Function           Bfn.         Coefficient        Function  
  ----     -------------------  ------------         ----     -------------------  ------------
   311    -0.589436  -0.000900  1 At f  1             309     0.000900  -0.589432  1 At f -1       
   297    -0.192475  -0.000294  1 At f  1             295     0.000294  -0.192474  1 At f -1       
   290    -0.060205  -0.000092  1 At f  1             288     0.000092  -0.060205  1 At f -1       
   222     0.000060  -0.039338  1 At py               221     0.039337   0.000060  1 At px         
   128     0.000059  -0.038399  1 At f -2             132     0.038399   0.000059  1 At f  2       

 Vector   59  Occ=0.000000D+00  E=-1.217892D-01
              MO Center=  4.7D-16, -2.6D-16, -1.4D-16, r^2= 1.1D-02
  Bfn.         Coefficient        Function           Bfn.         Coefficient        Function  
  ----     -------------------  ------------         ----     -------------------  ------------
   308     0.274704  -0.521685  1 At f -2             312    -0.521685  -0.274704  1 At f  2       
   294     0.089839  -0.170612  1 At f -2             298    -0.170612  -0.089839  1 At f  2       
   287     0.028500  -0.054123  1 At f -2             291    -0.054123  -0.028500  1 At f  2       
   131    -0.038409  -0.020225  1 At f  1             129    -0.020225   0.038409  1 At f -1       

 Vector   60  Occ=0.000000D+00  E=-1.200853D-01
              MO Center=  1.3D-16, -2.6D-16,  9.6D-18, r^2= 3.4D-03
  Bfn.         Coefficient        Function           Bfn.         Coefficient        Function  
  ----     -------------------  ------------         ----     -------------------  ------------
   312    -0.538484   0.254959  1 At f  2             308     0.254959   0.538484  1 At f -2       
   298    -0.173283   0.082045  1 At f  2             294     0.082045   0.173283  1 At f -2       
   291    -0.053095   0.025139  1 At f  2             287     0.025139   0.053095  1 At f -2       
   133     0.023005  -0.010892  1 At f  3             127     0.010892   0.023005  1 At f -3       

 Vector   61  Occ=0.000000D+00  E=-1.169907D-01
              MO Center= -9.9D-17, -3.2D-16, -1.7D-17, r^2= 5.1D-03
  Bfn.         Coefficient        Function           Bfn.         Coefficient        Function  
  ----     -------------------  ------------         ----     -------------------  ------------
   307    -0.000002   0.596612  1 At f -3             313    -0.596612  -0.000002  1 At f  3       
   293    -0.000001   0.192222  1 At f -3             299    -0.192222  -0.000001  1 At f  3       
   286    -0.000000   0.060264  1 At f -3             292    -0.060264  -0.000000  1 At f  3       
   128     0.000000  -0.031290  1 At f -2             132    -0.031290  -0.000000  1 At f  2       

 Vector   62  Occ=0.000000D+00  E=-1.168158D-01
              MO Center= -1.2D-13, -1.5D-13, -2.5D-13, r^2= 1.1D+01
  Bfn.         Coefficient        Function           Bfn.         Coefficient        Function  
  ----     -------------------  ------------         ----     -------------------  ------------
    41     2.478794   0.412268  1 At px                42    -0.412268   2.478793  1 At py         
    20     1.869480   0.310928  1 At px                21    -0.310928   1.869478  1 At py         
    44    -1.274735  -0.212011  1 At px                45     0.212011  -1.274735  1 At py         
    35     1.119798   0.186243  1 At px                36    -0.186242   1.119797  1 At py         
    18    -0.134008   0.805736  1 At py                17     0.805736   0.134008  1 At px         

 Vector   63  Occ=0.000000D+00  E=-1.144732D-01
              MO Center= -4.9D-22,  3.3D-23, -5.2D-22, r^2= 1.1D-10
  Bfn.         Coefficient        Function           Bfn.         Coefficient        Function  
  ----     -------------------  ------------         ----     -------------------  ------------
   313     0.605186  -0.000002  1 At f  3             307     0.000002   0.605186  1 At f -3       
   299     0.190367  -0.000001  1 At f  3             293     0.000001   0.190367  1 At f -3       
   292     0.056552  -0.000000  1 At f  3             286     0.000000   0.056552  1 At f -3       

 Vector   64  Occ=0.000000D+00  E=-1.123511D-01
              MO Center=  6.6D-14,  7.9D-14,  1.0D-13, r^2= 8.7D+00
  Bfn.         Coefficient        Function           Bfn.         Coefficient        Function  
  ----     -------------------  ------------         ----     -------------------  ------------
    43    -2.371059   0.058273  1 At pz               222     0.049902   2.030461  1 At py         
   221     2.030459  -0.049902  1 At px                22    -1.816049   0.044633  1 At pz         
   201     0.040761   1.658541  1 At py               200     1.658540  -0.040761  1 At px         
    46     1.164852  -0.028628  1 At pz                37    -1.095869   0.026933  1 At pz         
   216     0.024441   0.994472  1 At py               215     0.994471  -0.024441  1 At px         

 Vector   65  Occ=0.000000D+00  E=-1.116440D-01
              MO Center= -1.6D-13,  8.2D-14, -1.0D-13, r^2= 2.3D+00
  Bfn.         Coefficient        Function           Bfn.         Coefficient        Function  
  ----     -------------------  ------------         ----     -------------------  ------------
   223    -3.320659   0.002504  1 At pz               202    -2.676912   0.002019  1 At pz         
   226     1.606837  -0.001212  1 At pz               217    -1.603201   0.001209  1 At pz         
    41    -1.240634   0.000936  1 At px                42     0.000936   1.240632  1 At py         
   199    -1.084432   0.000818  1 At pz                20    -0.963054   0.000726  1 At px         
    21     0.000726   0.963052  1 At py               193     0.837904  -0.000632  1 At pz         

 Vector   66  Occ=0.000000D+00  E=-1.089939D-01
              MO Center=  6.1D-13, -3.7D-13,  2.1D-14, r^2= 5.1D+00
  Bfn.         Coefficient        Function           Bfn.         Coefficient        Function  
  ----     -------------------  ------------         ----     -------------------  ------------
    52     2.182723  -3.340772  1 At d -2              56     3.340771   2.182723  1 At d  2       
    47    -1.726462   2.642441  1 At d -2              51    -2.642440  -1.726462  1 At d  2       
    87     0.548376  -0.839318  1 At d -2              91     0.839318   0.548376  1 At d  2       
    82    -0.464939   0.711614  1 At d -2              86    -0.711614  -0.464939  1 At d  2       
   233    -0.286682   0.438782  1 At d -1             235     0.438782   0.286682  1 At d  1       

 Vector   67  Occ=0.000000D+00  E=-1.079145D-01
              MO Center= -3.6D-14, -3.2D-14,  3.1D-13, r^2= 5.0D+00
  Bfn.         Coefficient        Function           Bfn.         Coefficient        Function  
  ----     -------------------  ------------         ----     -------------------  ------------
    55    -3.989475  -0.017837  1 At d  1              53     0.017837  -3.989475  1 At d -1       
    50     3.160946   0.014132  1 At d  1              48    -0.014132   3.160945  1 At d -1       
   234    -1.140691  -0.005100  1 At d  0              88     0.004421  -0.988752  1 At d -1       
    90    -0.988752  -0.004421  1 At d  1             229     0.885564   0.003959  1 At d  0       
    83    -0.003778   0.844957  1 At d -1              85     0.844957   0.003778  1 At d  1       

 Vector   68  Occ=0.000000D+00  E=-1.072872D-01
              MO Center= -5.6D-17,  5.9D-17,  3.2D-17, r^2= 1.8D-07
  Bfn.         Coefficient        Function           Bfn.         Coefficient        Function  
  ----     -------------------  ------------         ----     -------------------  ------------
   221    -2.771108  -0.057778  1 At px               222    -0.057778   2.771105  1 At py         
   200    -2.303322  -0.048025  1 At px               201    -0.048025   2.303318  1 At py         
   215    -1.393605  -0.029057  1 At px               216    -0.029057   1.393603  1 At py         
   224     1.283836   0.026768  1 At px               225     0.026768  -1.283835  1 At py         
   197    -0.908912  -0.018951  1 At px               198    -0.018951   0.908912  1 At py         

 Vector   69  Occ=0.000000D+00  E=-1.064831D-01
              MO Center=  8.8D-14, -7.3D-14, -2.6D-13, r^2= 9.7D+00
  Bfn.         Coefficient        Function           Bfn.         Coefficient        Function  
  ----     -------------------  ------------         ----     -------------------  ------------
    54    -5.686421  -0.476649  1 At d  0              49     4.515408   0.378492  1 At d  0       
    89    -1.383571  -0.115974  1 At d  0              84     1.192637   0.099970  1 At d  0       
   233     0.078740  -0.939370  1 At d -1             235     0.939370   0.078740  1 At d  1       
   228    -0.061252   0.730736  1 At d -1             230    -0.730736  -0.061252  1 At d  1       
    74     0.530293   0.044450  1 At d  0              64     0.382553   0.032066  1 At d  0       

 Vector   70  Occ=0.000000D+00  E=-1.054997D-01
              MO Center= -4.0D-14, -3.5D-14,  2.4D-13, r^2= 5.0D+00
  Bfn.         Coefficient        Function           Bfn.         Coefficient        Function  
  ----     -------------------  ------------         ----     -------------------  ------------
    55    -4.171892   0.392365  1 At d  1              53     0.392365   4.171891  1 At d -1       
    50     3.321941  -0.312428  1 At d  1              48    -0.312428  -3.321940  1 At d -1       
    90    -0.991067   0.093210  1 At d  1              88     0.093210   0.991067  1 At d -1       
    85     0.862468  -0.081115  1 At d  1              83    -0.081115  -0.862468  1 At d -1       
   232     0.071562   0.760895  1 At d -2             236     0.760894  -0.071562  1 At d  2       

 Vector   71  Occ=0.000000D+00  E=-1.040204D-01
              MO Center=  4.6D-13, -1.9D-13,  2.0D-14, r^2= 5.3D+00
  Bfn.         Coefficient        Function           Bfn.         Coefficient        Function  
  ----     -------------------  ------------         ----     -------------------  ------------
    52     2.870874   3.370465  1 At d -2              56     3.370465  -2.870873  1 At d  2       
    47    -2.293262  -2.692337  1 At d -2              51    -2.692336   2.293261  1 At d  2       
    91     0.777468  -0.662227  1 At d  2              87     0.662227   0.777468  1 At d -2       
    86    -0.684214   0.582795  1 At d  2              82    -0.582795  -0.684214  1 At d -2       
    72    -0.257531  -0.302346  1 At d -2              76    -0.302346   0.257531  1 At d  2       

 Vector   72  Occ=0.000000D+00  E=-8.769077D-02
              MO Center=  1.3D-15, -1.5D-15, -2.6D-15, r^2= 1.5D-01
  Bfn.         Coefficient        Function           Bfn.         Coefficient        Function  
  ----     -------------------  ------------         ----     -------------------  ------------
   233     4.030945   2.069231  1 At d -1             235    -2.069229   4.030941  1 At d  1       
   228    -3.220881  -1.653396  1 At d -1             230     1.653394  -3.220878  1 At d  1       
[...]
   182   251.202563   0.002538  1 At s                187  -175.034937  -0.001768  1 At s          
   188  -113.833657  -0.001150  1 At s                181   105.924775   0.001070  1 At s          
   185    96.659708   0.000976  1 At s                189   -44.910895  -0.000454  1 At s          
   184    24.788298   0.000250  1 At s                183   -21.012497  -0.000212  1 At s          
   186     2.384810   0.000024  1 At s                190     0.305836   0.000003  1 At s          

 Vector  347  Occ=0.000000D+00  E= 8.714479D+01
              MO Center=  2.2D-11, -2.4D-10,  2.1D-10, r^2= 2.0D-01
  Bfn.         Coefficient        Function           Bfn.         Coefficient        Function  
  ----     -------------------  ------------         ----     -------------------  ------------
    21     3.4992417525.792051  1 At py                20  ***********   3.514049  1 At px         
   202  7525.761055  -3.506600  1 At pz                42     1.1824942543.153825  1 At py         
    41  ***********   1.187474  1 At px               223  2543.143391  -1.184968  1 At pz         
    36     1.1254792420.472376  1 At py                35  ***********   1.130165  1 At px         
   217  2420.462534  -1.127805  1 At pz                15     1.0806242324.121710  1 At py         

 Vector  348  Occ=0.000000D+00  E= 8.714480D+01
              MO Center= -3.2D-16,  2.0D-16, -2.3D-15, r^2= 5.6D-07
  Bfn.         Coefficient        Function           Bfn.         Coefficient        Function  
  ----     -------------------  ------------         ----     -------------------  ------------
   201  7525.775314  12.177929  1 At py               200    12.192672***********  1 At px         
    22    12.185259***********  1 At pz               222  2543.148189   4.115240  1 At py         
   221     4.120199***********  1 At px                43     4.117705***********  1 At pz         
   216  2420.467055   3.916750  1 At py               215     3.921416***********  1 At px         
    37     3.919067***********  1 At pz               195  2324.116521   3.760785  1 At py         

 Vector  349  Occ=0.000000D+00  E= 9.180387D+01
              MO Center= -5.5D-10, -3.3D-10,  3.9D-10, r^2= 2.5D-01
  Bfn.         Coefficient        Function           Bfn.         Coefficient        Function  
  ----     -------------------  ------------         ----     -------------------  ------------
    21  ***********6226.106743  1 At py                20  4086.7335167629.614823  1 At px         
    42  ***********2098.282042  1 At py                36  ***********1984.143610  1 At py         
    15  ***********1929.411531  1 At py                41  1377.2844002571.283231  1 At px         
    35  1302.3655032431.415396  1 At px                39  ***********1743.611347  1 At py         
    14  1266.4400012364.345383  1 At px                38  1144.4833142136.661602  1 At px         

 Vector  350  Occ=0.000000D+00  E= 9.180388D+01
              MO Center=  5.2D-11,  1.2D-10, -5.9D-11, r^2= 5.3D-02
  Bfn.         Coefficient        Function           Bfn.         Coefficient        Function  
  ----     -------------------  ------------         ----     -------------------  ------------
   201  *********** 941.283349  1 At py                22  3979.766522***********  1 At pz         
   200  **********************  1 At px               222  *********** 317.225207  1 At py         
    43  1341.235074***********  1 At pz               216  *********** 299.969400  1 At py         
    37  1268.277113***********  1 At pz               195  *********** 291.694789  1 At py         
    16  1233.291946***********  1 At pz               219  *********** 263.604933  1 At py         

 Vector  351  Occ=0.000000D+00  E= 9.180388D+01
              MO Center=  1.6D-10,  3.4D-10, -1.5D-10, r^2= 1.4D-01
  Bfn.         Coefficient        Function           Bfn.         Coefficient        Function  
  ----     -------------------  ------------         ----     -------------------  ------------
   200  5345.859908***********  1 At px                22  ***********1590.460867  1 At pz         
   201  *********** 976.102575  1 At py               221  1801.627000***********  1 At px         
   215  1703.625517***********  1 At px               194  1656.631345***********  1 At px         
   218  1497.099680***********  1 At px                43  *********** 536.006793  1 At pz         
   222  *********** 328.959760  1 At py               197  ***********1750.863271  1 At px         

 Vector  352  Occ=0.000000D+00  E= 9.180389D+01
              MO Center= -5.1D-11, -1.1D-10,  1.9D-10, r^2= 1.4D-01
  Bfn.         Coefficient        Function           Bfn.         Coefficient        Function  
  ----     -------------------  ------------         ----     -------------------  ------------
   202  ***********  93.551053  1 At pz                20  6237.1763801626.962689  1 At px         
    21  **********************  1 At py               223  3560.037872  31.527968  1 At pz         
   217  3366.385704  29.812970  1 At pz               196  3273.524608  28.990585  1 At pz         
   220  2958.288021  26.198825  1 At pz               199  *********** -20.733989  1 At pz         
    41  2102.012669 548.308401  1 At px                35  1987.671328 518.482559  1 At px         

 Vector  353  Occ=0.000000D+00  E= 2.271802D+02
              MO Center=  5.8D-12, -1.1D-10,  9.7D-11, r^2= 1.1D-01
  Bfn.         Coefficient        Function           Bfn.         Coefficient        Function  
  ----     -------------------  ------------         ----     -------------------  ------------
    21    -5.043648***********  1 At py                20  8141.776386  -5.059404  1 At px         
   202  ***********   5.051475  1 At pz                15    -1.629824***********  1 At py         
    14  2630.985359  -1.634938  1 At px               196  ***********   1.632366  1 At pz         
    18     1.6263912625.569977  1 At py                17  ***********   1.631633  1 At px         
   199  2625.560208  -1.629002  1 At pz                42    -1.620771***********  1 At py         

 Vector  354  Occ=0.000000D+00  E= 2.271802D+02
              MO Center=  6.9D-12,  1.6D-11, -7.8D-12, r^2= 5.9D-03
  Bfn.         Coefficient        Function           Bfn.         Coefficient        Function  
  ----     -------------------  ------------         ----     -------------------  ------------
   201  ***********1862.415197  1 At py               200  1862.3959377925.905421  1 At px         
    22  1862.4034397925.902777  1 At pz               195  *********** 601.832694  1 At py         
   194   601.8264462561.227435  1 At px                16   601.8288782561.226574  1 At pz         
   198  2555.954321-600.592706  1 At py               197  -600.586313***********  1 At px         
    19  -600.588798***********  1 At pz               222  *********** 598.480218  1 At py         

 Vector  355  Occ=0.000000D+00  E= 2.382733D+02
              MO Center= -2.7D-10, -7.4D-11,  2.7D-10, r^2= 1.2D-01
  Bfn.         Coefficient        Function           Bfn.         Coefficient        Function  
  ----     -------------------  ------------         ----     -------------------  ------------
    21  6995.308454***********  1 At py                20  **********************  1 At px         
   202  3753.623765 323.781253  1 At pz                18  ***********2626.481673  1 At py         
    15  2261.315030***********  1 At py                42  2246.815098***********  1 At py         
    36  1872.033297***********  1 At py                17  1412.2199092158.202303  1 At px         
    39  1682.774458***********  1 At py                14  **********************  1 At px         

 Vector  356  Occ=0.000000D+00  E= 2.382733D+02
              MO Center=  1.8D-11,  3.3D-11, -3.0D-11, r^2= 1.6D-02
  Bfn.         Coefficient        Function           Bfn.         Coefficient        Function  
  ----     -------------------  ------------         ----     -------------------  ------------
   201  ***********-621.877247  1 At py                22  ***********6174.857283  1 At pz         
   200  3710.2640164379.136010  1 At px               198  *********** 201.173702  1 At py         
   195  3411.690570-201.029065  1 At py               222  3389.814228-199.740048  1 At py         
   216  2824.373528-166.422268  1 At py               219  2538.834989-149.597304  1 At py         
    19   999.081040***********  1 At pz                16  -998.3625531996.094611  1 At pz         

 Vector  357  Occ=0.000000D+00  E= 2.382734D+02
              MO Center=  1.4D-10,  3.2D-10, -2.0D-10, r^2= 1.3D-01
  Bfn.         Coefficient        Function           Bfn.         Coefficient        Function  
  ----     -------------------  ------------         ----     -------------------  ------------
   200  8193.917532***********  1 At px                22  ***********1169.128472  1 At pz         
   201  *********** 673.677930  1 At py               197  ***********1652.619081  1 At px         
   194  2648.779377***********  1 At px               221  2631.794993***********  1 At px         
    19  2868.614018-378.206397  1 At pz                16  *********** 377.934410  1 At pz         
    43  *********** 375.511035  1 At pz               215  2192.796358***********  1 At px         

 Vector  358  Occ=0.000000D+00  E= 2.382734D+02
              MO Center= -3.7D-11, -1.3D-11,  1.7D-10, r^2= 1.1D-01
  Bfn.         Coefficient        Function           Bfn.         Coefficient        Function  
  ----     -------------------  ------------         ----     -------------------  ------------
   202  **********************  1 At pz                20  7841.7148921313.335576  1 At px         
    21  **********************  1 At py               199  *********** 376.391524  1 At pz         
   196  3405.983473-376.120849  1 At pz               223  3384.143796-373.709105  1 At pz         
   217  2819.649049-311.372266  1 At pz                17  ***********-424.856565  1 At px         
    14  2534.925774 424.551037  1 At px                41  2518.671422 421.828751  1 At px         

 Vector  359  Occ=0.000000D+00  E= 8.939146D+02
              MO Center= -1.3D-11, -4.3D-15,  3.7D-14, r^2= 1.7D-01
  Bfn.         Coefficient        Function           Bfn.         Coefficient        Function  
  ----     -------------------  ------------         ----     -------------------  ------------
     2   209.600212  24.494903  1 At s                  7  -146.651966 -17.138464  1 At s          
     8   -94.793453 -11.078025  1 At s                  5    91.200867  10.658178  1 At s          
     1    78.445694   9.167546  1 At s                  9   -37.499546  -4.382380  1 At s          
     3   -26.252244  -3.067965  1 At s                  4    24.106208   2.817169  1 At s          
     6     3.767042   0.440235  1 At s                 10     0.245999   0.028749  1 At s          

 Vector  360  Occ=0.000000D+00  E= 8.939146D+02
              MO Center= -2.8D-20, -1.1D-23, -2.4D-18, r^2= 3.0D-10
  Bfn.         Coefficient        Function           Bfn.         Coefficient        Function  
  ----     -------------------  ------------         ----     -------------------  ------------
   182   211.026655  -0.001077  1 At s                187  -147.650012   0.000754  1 At s          
   188   -95.438574   0.000487  1 At s                185    91.821538  -0.000469  1 At s          
   181    78.979560  -0.000403  1 At s                189   -37.754751   0.000193  1 At s          
   183   -26.430905   0.000135  1 At s                184    24.270264  -0.000124  1 At s          
   186     3.792679  -0.000019  1 At s                190     0.247673  -0.000001  1 At s          


   alpha - beta orbital overlaps 
   ----------------------------- 


   alpha      1      2      3      4      5      6      7      8      9     10
    beta      1      2      1      1      1      2      1      1      1      1
 overlap   1.217  0.847  0.015  0.069  0.017  0.042  0.149  0.054  0.039  0.005


   alpha     11     12     13     14     15     16     17     18     19     20
    beta     17     18     19     17     18     19     17     18     19     17
 overlap   5.401  5.401  5.401  8.792  8.792  8.792 12.743 12.743 12.743  9.972


   alpha     21     22     23     24     25     26     27     28     29     30
    beta     18     19     17     18     19     17     18     19     17     18
 overlap   9.972  9.972  0.685  0.685  0.685  1.526  1.526  1.526  0.262  0.262


   alpha     31     32     33     34     35     36     37     38     39     40
    beta     19     17     18     19     17     18     19     17     18     19
 overlap   0.262  1.356  1.356  1.356  1.780  1.780  1.780  0.778  0.778  0.778


   alpha     41     42     43     44     45     46     47     48     49     50
    beta     17     18     19     17     18     19     52     53     54     55
 overlap   1.936  1.936  1.936  0.086  0.086  0.086  0.174  0.174  0.174  0.174


   alpha     51     52     53     54     55     56     57     58     59     60
    beta     56     52     53     54     55     56     52     53     54     55
 overlap   0.174  0.670  0.670  0.670  0.670  0.670  0.003  0.003  0.003  0.003


   alpha     61     62     63     64     65     66     67     68     69     70
    beta     56     52     53     54     55     56     52     53     54     55
 overlap   0.003  0.010  0.010  0.010  0.010  0.010  0.015  0.015  0.015  0.015


   alpha     71     72     73     74     75     76     77     78     79     80
    beta     56     52     53     54     55     56     52     53     54     55
 overlap   0.015  0.003  0.003  0.003  0.003  0.003  0.000  0.000  0.000  0.000


   alpha     81     82     83     84     85     86     87     88     89     90
    beta     56     52     53     54     55     56     52     53     54     55
 overlap   0.000  0.003  0.003  0.003  0.003  0.003  0.000  0.000  0.000  0.000


   alpha     91     92     93     94     95     96     97     98     99    100
    beta     56     18     18     18     19     17     19     17     18     18
 overlap   0.000  0.000  0.000  0.000  0.000  0.000  0.000  0.000  0.000  0.000


   alpha    101    102    103    104    105    106    107    108    109    110
    beta     21     22     20     19     17     21     18     21     22     20
 overlap   0.000  0.000  0.000  0.000  0.000  0.000  0.000  0.000  0.000  0.000


   alpha    111    112    113    114    115    116    117    118    119    120
    beta     22     20     18     19     18     19     17     19     17     18
 overlap   0.000  0.000  0.000  0.000  0.000  0.000  0.000  0.000  0.000  0.000


   alpha    121    122    123    124    125    126    127    128    129    130
    beta     18     18     19     17     19     17     18     19     18     19
 overlap   0.000  0.000  0.000  0.000  0.000  0.000  0.000  0.000  0.000  0.000


   alpha    131    132    133    134    135    136    137    138    139    140
    beta     17     19     17     52     53     52     53     54     55     56
 overlap   0.000  0.000  0.000  0.000  0.000  0.000  0.000  0.000  0.000  0.000


   alpha    141    142    143    144    145    146    147    148    149    150
    beta     55     56     52     53     52     53     54     55     56     55
 overlap   0.000  0.000  0.000  0.000  0.000  0.000  0.000  0.000  0.000  0.000


   alpha    151    152    153    154    155    156    157    158    159    160
    beta     56     52     53     52     53     54     55     56     55     56
 overlap   0.000  0.000  0.000  0.000  0.000  0.000  0.000  0.000  0.000  0.000


   alpha    161    162    163    164    165    166    167    168    169    170
    beta     52     53     52     53     54     55     56     55     56     21
 overlap   0.000  0.000  0.000  0.000  0.000  0.000  0.000  0.000  0.000  0.000


   alpha    171    172    173    174    175    176    177    178    179    180
    beta     19     21     22     18     19     17     22     17     22     20
 overlap   0.000  0.000  0.000  0.000  0.000  0.000  0.000  0.000  0.000  0.000


     --------------------------
     Expectation value of S2:  
     --------------------------
      <S2> =      0.1121 (Exact =     0.0000)


 Parallel integral file used     309 records with       0 large values


 Task  times  cpu:      138.9s     wall:      141.7s
 Summary of allocated global arrays
-----------------------------------
  No active global arrays



                         GA Statistics for process    0
                         ------------------------------

       create   destroy   get      put      acc     scatter   gather  read&inc
calls: 7002     7002     1.97e+05 1.56e+05 2.66e+05    0        0     1.73e+04 
number of processes/call 1.00e+00 1.00e+00 1.00e+00 0.00e+00 0.00e+00
bytes total:             6.39e+09 4.26e+09 3.28e+09 0.00e+00 0.00e+00 1.38e+05
bytes remote:            0.00e+00 0.00e+00 0.00e+00 0.00e+00 0.00e+00 0.00e+00
Max memory consumed for GA by this process: 79574400 bytes
MA_summarize_allocated_blocks: starting scan ...
MA_summarize_allocated_blocks: scan completed: 0 heap blocks, 0 stack blocks
MA usage statistics:

	allocation statistics:
					      heap	     stack
					      ----	     -----
	current number of blocks	         0	         0
	maximum number of blocks	        42	        57
	current total bytes		         0	         0
	maximum total bytes		2158655856	 125813992
	maximum total K-bytes		   2158656	    125814
	maximum total M-bytes		      2159	       126


                                NWChem Input Module
                                -------------------





                                     CITATION
                                     --------
                Please cite the following reference when publishing
                           results obtained with NWChem:

                 M. Valiev, E.J. Bylaska, N. Govind, K. Kowalski,
              T.P. Straatsma, H.J.J. van Dam, D. Wang, J. Nieplocha,
                        E. Apra, T.L. Windus, W.A. de Jong
                 "NWChem: a comprehensive and scalable open-source
                  solution for large scale molecular simulations"
                      Comput. Phys. Commun. 181, 1477 (2010)
                           doi:10.1016/j.cpc.2010.04.018

                                      AUTHORS
                                      -------
          E. Apra, E. J. Bylaska, W. A. de Jong, N. Govind, K. Kowalski,
       T. P. Straatsma, M. Valiev, H. J. J. van Dam, D. Wang, T. L. Windus,
        J. Hammond, J. Autschbach, K. Bhaskaran-Nair, J. Brabec, K. Lopata,
    S. A. Fischer, S. Krishnamoorthy, M. Jacquelin, W. Ma, M. Klemm, O. Villa,
      Y. Chen, V. Anisimov, F. Aquino, S. Hirata, M. T. Hackler, V. Konjkov,
            D. Mejia-Rodriguez, T. Risthaus, M. Malagoli, A. Marenich,
   A. Otero-de-la-Roza, J. Mullin, P. Nichols, R. Peverati, J. Pittner, Y. Zhao,
        P.-D. Fan, A. Fonari, M. J. Williamson, R. J. Harrison, J. R. Rehr,
      M. Dupuis, D. Silverstein, D. M. A. Smith, J. Nieplocha, V. Tipparaju,
    M. Krishnan, B. E. Van Kuiken, A. Vazquez-Mayagoitia, L. Jensen, M. Swart,
      Q. Wu, T. Van Voorhis, A. A. Auer, M. Nooijen, L. D. Crosby, E. Brown,
      G. Cisneros, G. I. Fann, H. Fruchtl, J. Garza, K. Hirao, R. A. Kendall,
      J. A. Nichols, K. Tsemekhman, K. Wolinski, J. Anchell, D. E. Bernholdt,
      P. Borowski, T. Clark, D. Clerc, H. Dachsel, M. J. O. Deegan, K. Dyall,
    D. Elwood, E. Glendening, M. Gutowski, A. C. Hess, J. Jaffe, B. G. Johnson,
     J. Ju, R. Kobayashi, R. Kutteh, Z. Lin, R. Littlefield, X. Long, B. Meng,
      T. Nakajima, S. Niu, L. Pollack, M. Rosing, K. Glaesemann, G. Sandrone,
      M. Stave, H. Taylor, G. Thomas, J. H. van Lenthe, A. T. Wong, Z. Zhang.

 Total times  cpu:      645.3s     wall:      661.7s
