 Data for JOB [23147,1] offset 0 Total slots allocated 16

 ========================   JOB MAP   ========================

 Data for node: r03n26	Num slots: 16	Max slots: 0	Num procs: 16
 	Process OMPI jobid: [23147,1] App: 0 Process rank: 0 Bound: socket 0[core 0[hwt 0]]:[B/././././././.][./././././././.]
 	Process OMPI jobid: [23147,1] App: 0 Process rank: 1 Bound: socket 0[core 1[hwt 0]]:[./B/./././././.][./././././././.]
 	Process OMPI jobid: [23147,1] App: 0 Process rank: 2 Bound: socket 0[core 2[hwt 0]]:[././B/././././.][./././././././.]
 	Process OMPI jobid: [23147,1] App: 0 Process rank: 3 Bound: socket 0[core 3[hwt 0]]:[./././B/./././.][./././././././.]
 	Process OMPI jobid: [23147,1] App: 0 Process rank: 4 Bound: socket 0[core 4[hwt 0]]:[././././B/././.][./././././././.]
 	Process OMPI jobid: [23147,1] App: 0 Process rank: 5 Bound: socket 0[core 5[hwt 0]]:[./././././B/./.][./././././././.]
 	Process OMPI jobid: [23147,1] App: 0 Process rank: 6 Bound: socket 0[core 6[hwt 0]]:[././././././B/.][./././././././.]
 	Process OMPI jobid: [23147,1] App: 0 Process rank: 7 Bound: socket 0[core 7[hwt 0]]:[./././././././B][./././././././.]
 	Process OMPI jobid: [23147,1] App: 0 Process rank: 8 Bound: socket 1[core 8[hwt 0]]:[./././././././.][B/././././././.]
 	Process OMPI jobid: [23147,1] App: 0 Process rank: 9 Bound: socket 1[core 9[hwt 0]]:[./././././././.][./B/./././././.]
 	Process OMPI jobid: [23147,1] App: 0 Process rank: 10 Bound: socket 1[core 10[hwt 0]]:[./././././././.][././B/././././.]
 	Process OMPI jobid: [23147,1] App: 0 Process rank: 11 Bound: socket 1[core 11[hwt 0]]:[./././././././.][./././B/./././.]
 	Process OMPI jobid: [23147,1] App: 0 Process rank: 12 Bound: socket 1[core 12[hwt 0]]:[./././././././.][././././B/././.]
 	Process OMPI jobid: [23147,1] App: 0 Process rank: 13 Bound: socket 1[core 13[hwt 0]]:[./././././././.][./././././B/./.]
 	Process OMPI jobid: [23147,1] App: 0 Process rank: 14 Bound: socket 1[core 14[hwt 0]]:[./././././././.][././././././B/.]
 	Process OMPI jobid: [23147,1] App: 0 Process rank: 15 Bound: socket 1[core 15[hwt 0]]:[./././././././.][./././././././B]

 =============================================================
 argument  1 = nwchat.nw
                                         
                                         


              Northwest Computational Chemistry Package (NWChem) 6.8
              ------------------------------------------------------


                    Environmental Molecular Sciences Laboratory
                       Pacific Northwest National Laboratory
                                Richland, WA 99352

                              Copyright (c) 1994-2018
                       Pacific Northwest National Laboratory
                            Battelle Memorial Institute

             NWChem is an open-source computational chemistry package
                        distributed under the terms of the
                      Educational Community License (ECL) 2.0
             A copy of the license is included with this distribution
                              in the LICENSE.TXT file

                                  ACKNOWLEDGMENT
                                  --------------

            This software and its documentation were developed at the
            EMSL at Pacific Northwest National Laboratory, a multiprogram
            national laboratory, operated for the U.S. Department of Energy
            by Battelle under Contract Number DE-AC05-76RL01830. Support
            for this work was provided by the Department of Energy Office
            of Biological and Environmental Research, Office of Basic
            Energy Sciences, and the Office of Advanced Scientific Computing.


           Job information
           ---------------

    hostname        = r03n26.localdomain.hpc.udel.edu
    program         = nwchem
    date            = Sat Jul 31 18:06:17 2021

    compiled        = Mon_Jun_22_16:48:09_2020
    source          = /opt/shared/nwchem/6.8.1/src
    nwchem branch   = Development
    nwchem revision = N/A
    ga revision     = 5.6.5
    use scalapack   = F
    input           = nwchat.nw
    prefix          = nwchat.
    data base       = /work/akanane/users/kennet/GA/parallel/ga_at/nwchat.db
    status          = startup
    nproc           =       16
    time left       =     -1s



           Memory information
           ------------------

    heap     = 1048575994 doubles =   8000.0 Mbytes
    stack    = 1048575999 doubles =   8000.0 Mbytes
    global   = 2097152000 doubles =  16000.0 Mbytes (distinct from heap & stack)
    total    = 4194303993 doubles =  32000.0 Mbytes
    verify   = yes
    hardfail = no 


           Directory information
           ---------------------

  0 permanent = /work/akanane/users/kennet/GA/parallel/ga_at
  0 scratch   = /work/akanane/users/kennet/GA/parallel/ga_at/tmp3




                                NWChem Input Module
                                -------------------


  library name resolved from: environment
  library file name is: </opt/shared/nwchem/6.8.1/data/libraries/>
  

 **** WARNING Zero Coefficient **** on atom "               H"
 angular momentum value: 1  standard basis set name: "user specified"
 input line that generated warning:
    23:       4.516000E+00           1.000000E+00           0.000000E+00           0.000000E+00           0.000000E+00
  

 **** WARNING Zero Coefficient **** on atom "               H"
 angular momentum value: 1  standard basis set name: "user specified"
 input line that generated warning:
    23:       4.516000E+00           1.000000E+00           0.000000E+00           0.000000E+00           0.000000E+00
  

 **** WARNING Zero Coefficient **** on atom "               H"
 angular momentum value: 1  standard basis set name: "user specified"
 input line that generated warning:
    23:       4.516000E+00           1.000000E+00           0.000000E+00           0.000000E+00           0.000000E+00
  

 **** WARNING Zero Coefficient **** on atom "               H"
 angular momentum value: 1  standard basis set name: "user specified"
 input line that generated warning:
    24:       1.712000E+00           0.000000E+00           1.000000E+00           0.000000E+00           0.000000E+00
  

 **** WARNING Zero Coefficient **** on atom "               H"
 angular momentum value: 1  standard basis set name: "user specified"
 input line that generated warning:
    24:       1.712000E+00           0.000000E+00           1.000000E+00           0.000000E+00           0.000000E+00
  

 **** WARNING Zero Coefficient **** on atom "               H"
 angular momentum value: 1  standard basis set name: "user specified"
 input line that generated warning:
    24:       1.712000E+00           0.000000E+00           1.000000E+00           0.000000E+00           0.000000E+00
  

 **** WARNING Zero Coefficient **** on atom "               H"
 angular momentum value: 1  standard basis set name: "user specified"
 input line that generated warning:
    25:       6.490000E-01           0.000000E+00           0.000000E+00           1.000000E+00           0.000000E+00
  

 **** WARNING Zero Coefficient **** on atom "               H"
 angular momentum value: 1  standard basis set name: "user specified"
 input line that generated warning:
    25:       6.490000E-01           0.000000E+00           0.000000E+00           1.000000E+00           0.000000E+00
  

 **** WARNING Zero Coefficient **** on atom "               H"
 angular momentum value: 1  standard basis set name: "user specified"
 input line that generated warning:
    25:       6.490000E-01           0.000000E+00           0.000000E+00           1.000000E+00           0.000000E+00
  

 **** WARNING Zero Coefficient **** on atom "               H"
 angular momentum value: 1  standard basis set name: "user specified"
 input line that generated warning:
    26:       2.460000E-01           0.000000E+00           0.000000E+00           0.000000E+00           1.000000E+00
  

 **** WARNING Zero Coefficient **** on atom "               H"
 angular momentum value: 1  standard basis set name: "user specified"
 input line that generated warning:
    26:       2.460000E-01           0.000000E+00           0.000000E+00           0.000000E+00           1.000000E+00
  

 **** WARNING Zero Coefficient **** on atom "               H"
 angular momentum value: 1  standard basis set name: "user specified"
 input line that generated warning:
    26:       2.460000E-01           0.000000E+00           0.000000E+00           0.000000E+00           1.000000E+00
  

 **** WARNING Zero Coefficient **** on atom "               H"
 angular momentum value: 2  standard basis set name: "user specified"
 input line that generated warning:
    28:       2.950000E+00           1.000000E+00           0.000000E+00           0.000000E+00
  

 **** WARNING Zero Coefficient **** on atom "               H"
 angular momentum value: 2  standard basis set name: "user specified"
 input line that generated warning:
    28:       2.950000E+00           1.000000E+00           0.000000E+00           0.000000E+00
  

 **** WARNING Zero Coefficient **** on atom "               H"
 angular momentum value: 2  standard basis set name: "user specified"
 input line that generated warning:
    29:       1.206000E+00           0.000000E+00           1.000000E+00           0.000000E+00
  

 **** WARNING Zero Coefficient **** on atom "               H"
 angular momentum value: 2  standard basis set name: "user specified"
 input line that generated warning:
    29:       1.206000E+00           0.000000E+00           1.000000E+00           0.000000E+00
  

 **** WARNING Zero Coefficient **** on atom "               H"
 angular momentum value: 2  standard basis set name: "user specified"
 input line that generated warning:
    30:       4.930000E-01           0.000000E+00           0.000000E+00           1.000000E+00
  

 **** WARNING Zero Coefficient **** on atom "               H"
 angular momentum value: 2  standard basis set name: "user specified"
 input line that generated warning:
    30:       4.930000E-01           0.000000E+00           0.000000E+00           1.000000E+00
  

 **** WARNING Zero Coefficient **** on atom "               H"
 angular momentum value: 3  standard basis set name: "user specified"
 input line that generated warning:
    32:       2.506000E+00           1.000000E+00           0.000000E+00
  

 **** WARNING Zero Coefficient **** on atom "               H"
 angular momentum value: 3  standard basis set name: "user specified"
 input line that generated warning:
    33:       8.750000E-01           0.000000E+00           1.000000E+00
  
                      Basis "ao basis" -> "" (spherical)
                      -----
  H (Hydrogen)
  ------------
            Exponent  Coefficients 
       -------------- ---------------------------------------------------------
  1 S  4.02000000E+02  1.000000

  2 S  6.02400000E+01  1.000000

  3 S  1.37300000E+01  1.000000

  4 S  3.90500000E+00  1.000000

  5 S  1.28300000E+00  1.000000

  6 S  4.65500000E-01  1.000000

  7 S  1.81100000E-01  1.000000

  8 S  7.27900000E-02  1.000000

  9 P  4.51600000E+00  1.000000

 10 P  1.71200000E+00  1.000000

 11 P  6.49000000E-01  1.000000

 12 P  2.46000000E-01  1.000000

 13 D  2.95000000E+00  1.000000

 14 D  1.20600000E+00  1.000000

 15 D  4.93000000E-01  1.000000

 16 F  2.50600000E+00  1.000000

 17 F  8.75000000E-01  1.000000

 18 G  2.35800000E+00  1.000000

  At (Astatine)
  -------------
            Exponent  Coefficients 
       -------------- ---------------------------------------------------------
  1 S  3.24597221E+01  1.000000

  2 S  1.65767316E+01  1.000000

  3 S  8.46550780E+00  1.000000

  4 S  4.32321790E+00  1.000000

  5 S  2.20780760E+00  1.000000

  6 S  1.12749690E+00  1.000000

  7 S  5.75797100E-01  1.000000

  8 S  2.94051600E-01  1.000000

  9 S  1.50168100E-01  1.000000

 10 S  7.66888000E-02  1.000000

 11 S  3.91639000E-02  1.000000

 12 S  2.00005000E-02  1.000000

 13 P  1.65767316E+01  1.000000

 14 P  8.46550780E+00  1.000000

 15 P  4.32321790E+00  1.000000

 16 P  2.20780760E+00  1.000000

 17 P  1.12749690E+00  1.000000

 18 P  5.75797100E-01  1.000000

 19 P  2.94051600E-01  1.000000

 20 P  1.50168100E-01  1.000000

 21 P  7.66888000E-02  1.000000

 22 P  3.91639000E-02  1.000000

 23 P  2.00005000E-02  1.000000

 24 D  1.65767316E+01  1.000000

 25 D  8.46550780E+00  1.000000

 26 D  4.32321790E+00  1.000000

 27 D  2.20780760E+00  1.000000

 28 D  1.12749690E+00  1.000000

 29 D  5.75797100E-01  1.000000

 30 D  2.94051600E-01  1.000000

 31 D  1.50168100E-01  1.000000

 32 D  7.66888000E-02  1.000000

 33 D  3.91639000E-02  1.000000

 34 F  4.32321790E+00  1.000000

 35 F  2.20780760E+00  1.000000

 36 F  1.12749690E+00  1.000000

 37 F  5.75797100E-01  1.000000

 38 F  2.94051600E-01  1.000000

 39 F  1.50168100E-01  1.000000

 40 G  2.20780760E+00  1.000000

 41 G  1.12749690E+00  1.000000

 42 G  5.75797100E-01  1.000000

 43 G  2.94051600E-01  1.000000



 Summary of "ao basis" -> "" (spherical)
 ------------------------------------------------------------------------------
       Tag                 Description            Shells   Functions and Types
 ---------------- ------------------------------  ------  ---------------------
 H                       user specified             18       58   8s4p3d2f1g
 At                      user specified             43      173   12s11p10d6f4g


  library name resolved from: environment
  library file name is: </opt/shared/nwchem/6.8.1/data/libraries/>
  
                 ECP       "ecp basis" -> "" (cartesian)
                -----
  At (Astatine) Replaces    60 electrons
  --------------------------------------
             Channel    R-exponent     Exponent     Coefficients
         ------------ ---------------------------------------------------------
  1 U L       Both         0.00      525.754846      -0.173059
  1 U L       Both         1.00     2395.715850      -2.276906
  1 U L       Both         1.00      278.392187      -3.857969
  1 U L       Both         1.00       61.458962     -36.770662
  1 U L       Both         1.00       44.129376      37.601009
  1 U L       Both         1.00       31.359815     -23.238699
  1 U L       Both         1.00       11.620573     -16.176532
  1 U L       Both         1.00        4.446625      -3.261971
  1 U L       Both         1.00        2.935632       0.180132
  1 U L       Both         1.00        1.910251      -0.146253
  1 U L       Both         1.00        0.178868      -0.000306
  1 U L       Both         1.00        0.018768      -0.000022
  1 U L       Both         1.00        0.009761      -0.000001

  2 U-s       Both         0.00       78.594234      10.173059
  2 U-s       Both         1.00       20.707609      53.132769
  2 U-s       Both         2.00       45.167107     915.704248
  2 U-s       Both         2.00       30.243749   -1411.543382
  2 U-s       Both         2.00       20.306371    1849.067583
  2 U-s       Both         2.00       13.560689   -1518.357864
  2 U-s       Both         2.00        8.557058    1106.328043
  2 U-s       Both         2.00        5.419636    -461.892244
  2 U-s       Both         2.00        3.516909     198.105995
  2 U-s       Both         2.00        2.287714     -81.896353
  2 U-s       Both         2.00        1.492833      32.227905
  2 U-s       Both         2.00        0.974359     -11.458592
  2 U-s       Both         2.00        0.633560       3.370887
  2 U-s       Both         2.00        0.410317      -0.726005
  2 U-s       Both         2.00        0.263860       0.084087

  3 U-p       Both         0.00       77.044856       9.173059
  3 U-p       Both         1.00      208.029432     -11.921411
  3 U-p       Both         1.00       28.036479      67.690912
  3 U-p       Both         2.00       39.868030     362.644345
  3 U-p       Both         2.00       26.002305    -582.208229
  3 U-p       Both         2.00       15.965542    1135.430155
  3 U-p       Both         2.00       11.089072   -1255.187511
  3 U-p       Both         2.00        8.084023     873.528658
  3 U-p       Both         2.00        5.150690    -147.543640
  3 U-p       Both         2.00        2.818771      20.737280
  3 U-p       Both         2.00        1.590819      -4.949674
  3 U-p       Both         2.00        0.878982       1.224799
  3 U-p       Both         2.00        0.479414      -0.318322
  3 U-p       Both         2.00        0.264399       0.075196
  3 U-p       Both         2.00        0.157424      -0.011770

  4 U-d       Both         0.00       30.117728       7.173059
  4 U-d       Both         1.00        9.540744     223.203571
  4 U-d       Both         1.00        5.932081    -532.676982
  4 U-d       Both         1.00        3.279986     364.117347
  4 U-d       Both         2.00        6.384402     470.098427
  4 U-d       Both         2.00        3.591978    -476.290215
  4 U-d       Both         2.00        1.790367       1.447964
  4 U-d       Both         2.00        0.921766      -0.463077
  4 U-d       Both         2.00        0.485962       0.163733
  4 U-d       Both         2.00        0.266420      -0.069600
  4 U-d       Both         2.00        0.150370       0.031881
  4 U-d       Both         2.00        0.090090      -0.013071
  4 U-d       Both         2.00        0.051240       0.003831
  4 U-d       Both         2.00        0.029281      -0.000895
  4 U-d       Both         2.00        0.016722       0.000119

  5 U-f       Both         0.00        0.891112       4.173059
  5 U-f       Both         1.00       18.356496      62.551914
  5 U-f       Both         2.00    32873.554569    1035.415119
  5 U-f       Both         2.00     3063.446789     192.725071
  5 U-f       Both         2.00       31.894642    -183.984679
  5 U-f       Both         2.00        4.214026      69.570454
  5 U-f       Both         2.00        1.887936    -131.986631
  5 U-f       Both         2.00        1.332761     223.444177
  5 U-f       Both         2.00        0.873304    -167.865396
  5 U-f       Both         2.00        0.632167      71.630825
  5 U-f       Both         2.00        0.438045     -11.215886
  5 U-f       Both         2.00        0.261926       0.470906
  5 U-f       Both         2.00        0.174510       0.000847

  library name resolved from: environment
  library file name is: </opt/shared/nwchem/6.8.1/data/libraries/>
  

 **** WARNING Zero Coefficient **** on atom "              At"
 angular momentum value: 1  standard basis set name: "user specified"
 input line that generated warning:
   206: 0       7.704485637704510E+01           0.000000000000000E+00
  

 **** WARNING Zero Coefficient **** on atom "              At"
 angular momentum value: 2  standard basis set name: "user specified"
 input line that generated warning:
   222: 0       3.011772828438610E+01           0.000000000000000E+00
  

 **** WARNING Zero Coefficient **** on atom "              At"
 angular momentum value: 3  standard basis set name: "user specified"
 input line that generated warning:
   238: 0       8.911119625038520E-01           0.000000000000000E+00
  

 **** WARNING Zero Coefficient **** on atom "              At"
 angular momentum value: 4  standard basis set name: "user specified"
 input line that generated warning:
   252: 0       5.257548462769590E+02           0.000000000000000E+00
  
             SO Potential "so potential" -> ""
                      -----
  At (Astatine)
  -------------
          R-exponent    Exponent     Coefficients 
         ------------ ------------------------------------------------------------
  1 U-p      1.00      208.029432       2.561177
  1 U-p      1.00       28.036479      -1.650544
  1 U-p      2.00       39.868030      77.307362
  1 U-p      2.00       26.002305    -118.585980
  1 U-p      2.00       15.965542     138.579485
  1 U-p      2.00       11.089072     -52.715330
  1 U-p      2.00        8.084023     -58.916702
  1 U-p      2.00        5.150690      62.873440
  1 U-p      2.00        2.818771     -15.889430
  1 U-p      2.00        1.590819       4.843922
  1 U-p      2.00        0.878982      -1.405982
  1 U-p      2.00        0.479414       0.390801
  1 U-p      2.00        0.264399      -0.095951
  1 U-p      2.00        0.157424       0.015456

  2 U-d      1.00        9.540744       1.612834
  2 U-d      1.00        5.932081      -1.350383
  2 U-d      1.00        3.279986      -0.287663
  2 U-d      2.00        6.384402      -1.664264
  2 U-d      2.00        3.591978       4.036069
  2 U-d      2.00        1.790367      -0.890782
  2 U-d      2.00        0.921766       0.301059
  2 U-d      2.00        0.485962      -0.123316
  2 U-d      2.00        0.266420       0.057045
  2 U-d      2.00        0.150370      -0.027051
  2 U-d      2.00        0.090090       0.011366
  2 U-d      2.00        0.051240      -0.003367
  2 U-d      2.00        0.029281       0.000795
  2 U-d      2.00        0.016722      -0.000104

  3 U-f      1.00       18.356496      -0.000643
  3 U-f      2.00    32873.554569       0.834481
  3 U-f      2.00     3063.446789       0.273486
  3 U-f      2.00       31.894642       0.160633
  3 U-f      2.00        4.214026      -0.068824
  3 U-f      2.00        1.887936       0.022494
  3 U-f      2.00        1.332761      -0.174753
  3 U-f      2.00        0.873304       0.160803
  3 U-f      2.00        0.632167       0.036072
  3 U-f      2.00        0.438045      -0.065269
  3 U-f      2.00        0.261926       0.016437
  3 U-f      2.00        0.174510      -0.002626

  4 U-g      1.00     2395.715850      -1.527919
  4 U-g      1.00      278.392187      -3.033005
  4 U-g      1.00       61.458962       2.574144
  4 U-g      1.00       44.129376      -2.630667
  4 U-g      1.00       31.359815       1.110494
  4 U-g      1.00       11.620573      -0.051219
  4 U-g      1.00        4.446625       0.042132
  4 U-g      1.00        2.935632      -0.036158
  4 U-g      1.00        1.910251       0.008870
  4 U-g      1.00        0.178868       0.000099
  4 U-g      1.00        0.018768       0.000004
  4 U-g      1.00        0.009761      -0.000000

                                   HAt_1.523786
                                   ------------

 Scaling coordinates for geometry "geometry" by  1.889725989
 (inverse scale =  0.529177249)

 Turning off AUTOSYM since
 SYMMETRY directive was detected!


          ------
          auto-z
          ------
  no constraints, skipping    0.0000000000000000     
  no constraints, skipping    0.0000000000000000     


                             Geometry "geometry" -> ""
                             -------------------------

 Output coordinates in angstroms (scale by  1.889725989 to convert to a.u.)

  No.       Tag          Charge          X              Y              Z
 ---- ---------------- ---------- -------------- -------------- --------------
    1 H                    1.0000     0.00000000     0.00000000    -1.50606756
    2 At                  85.0000     0.00000000     0.00000000     0.01771844

      Atomic Mass 
      ----------- 

      H                  1.007825
      At               210.987500


 Effective nuclear repulsion energy (a.u.)      29.5186241145

            Nuclear Dipole moment (a.u.) 
            ----------------------------
        X                 Y               Z
 ---------------- ---------------- ----------------
     0.0000000000     0.0000000000    -0.0000000000



                                Z-matrix (autoz)
                                -------- 

 Units are Angstrom for bonds and degrees for angles

      Type          Name      I     J     K     L     M      Value
      ----------- --------  ----- ----- ----- ----- ----- ----------
    1 Stretch                  1     2                       1.52379


            XYZ format geometry
            -------------------
     2
 geometry
 H                     0.00000000     0.00000000    -1.50606756
 At                    0.00000000     0.00000000     0.01771844

 ==============================================================================
                                internuclear distances
 ------------------------------------------------------------------------------
       center one      |      center two      | atomic units |  angstroms
 ------------------------------------------------------------------------------
    2 At               |   1 H                |     2.87954  |     1.52379
 ------------------------------------------------------------------------------
                         number of included internuclear distances:          1
 ==============================================================================




                                 NWChem DFT Module
                                 -----------------


                                   HAt_1.523786




 Summary of "ao basis" -> "ao basis" (spherical)
 ------------------------------------------------------------------------------
       Tag                 Description            Shells   Functions and Types
 ---------------- ------------------------------  ------  ---------------------
 H                       user specified             18       58   8s4p3d2f1g
 At                      user specified             43      173   12s11p10d6f4g


  Caching 1-el integrals 

            General Information
            -------------------
          SCF calculation type: DFT
          Wavefunction type:  spin polarized.
          No. of atoms     :     2
          No. of electrons :    26
           Alpha electrons :    13
            Beta electrons :    13
          Charge           :     0
          Spin multiplicity:     1
          Use of symmetry is: off; symmetry adaption is: off
          Maximum number of iterations: 100
          AO basis - number of functions:   231
                     number of shells:    61
          Convergence on energy requested:  1.00D-06
          Convergence on density requested:  5.00D-06
          Convergence on gradient requested:  5.00D-06

              XC Information
              --------------
                         PBE0 Method XC Functional
                     Hartree-Fock (Exact) Exchange  0.250          
          PerdewBurkeErnzerhof Exchange Functional  0.750          
            Perdew 1991 LDA Correlation Functional  1.000 local    
           PerdewBurkeErnz. Correlation Functional  1.000 non-local

             Grid Information
             ----------------
          Grid used for XC integration:  xfine     
          Radial quadrature: Mura-Knowles        
          Angular quadrature: Lebedev. 
          Tag              B.-S. Rad. Rad. Pts. Rad. Cut. Ang. Pts.
          ---              ---------- --------- --------- ---------
          H                   0.35      100          11.0      1202
          At                  1.90      205          13.0      1454
          Grid pruning is: on 
          Number of quadrature shells:   305
          Spatial weights used:  Erf1

          Convergence Information
          -----------------------
          Convergence aids based upon iterative change in 
          total energy or number of iterations. 
          Levelshifting, if invoked, occurs when the 
          HOMO/LUMO gap drops below (HL_TOL):  1.00D-02
          DIIS, if invoked, will attempt to extrapolate 
          using up to (NFOCK): 10 stored Fock matrices.

                    Damping( 0%)  Levelshifting(0.5)       DIIS
                  --------------- ------------------- ---------------
          dE  on:    start            ASAP                start   
          dE off:    2 iters        100 iters           100 iters 


      Screening Tolerance Information
      -------------------------------
          Density screening/tol_rho:  1.00D-10
          AO Gaussian exp screening on grid/accAOfunc:  14
          CD Gaussian exp screening on grid/accCDfunc:  20
          XC Gaussian exp screening on grid/accXCfunc:  20
          Schwarz screening/accCoul:  1.00D-10

 Performing spin-orbit DFT (SO-DFT) calculations
 -----------------------------------------------


      Superposition of Atomic Density Guess
      -------------------------------------

 Sum of atomic energies:        -303.15446649

      Non-variational initial energy
      ------------------------------

 Total energy =    -262.176338
 1-e energy   =    -471.940659
 2-e energy   =     201.082373
 HOMO         =      -0.335303
 LUMO         =       0.017981

   Time prior to 1st pass:      1.1

 Integral file          = /work/akanane/users/kennet/GA/parallel/ga_at/tmp3/nwchat.aoints.00
 Record size in doubles =    65536    No. of integs per rec  =    43688
 Max. records in memory =      692    Max. records in file   =  4389109
 No. of bits per label  =        8    No. of bits per value  =       64


 #quartets = 1.718D+06 #integrals = 5.866D+07 #direct =  0.0% #cached =100.0%


File balance: exchanges=    23  moved=   134  time=   0.0


 Grid_pts file          = /work/akanane/users/kennet/GA/parallel/ga_at/tmp3/nwchat.gridpts.00
 Record size in doubles =  12289        No. of grid_pts per rec  =   3070
 Max. records in memory =     11        Max. recs in file   =  23406591

 Grid integrated density:          25.999996768432
 Requested integration accuracy:   0.10E-07

           Memory utilization after 1st SCF pass: 
           Heap Space remaining (MW):     1003.06          1003055970
          Stack Space remaining (MW):     1048.14          1048142956

   convergence    iter        energy       DeltaE   RMS-Dens  Diis-err    time
 ---------------- ----- ----------------- --------- --------- ---------  ------
 d= 0,ls=0.0,diis     1   -263.2749530374 -2.72D+02  2.54D-03  6.61D+00     9.0
                                                     2.54D-03  6.61D+00
 Grid integrated density:          25.999996621368
 Requested integration accuracy:   0.10E-07
 d= 0,ls=0.0,diis     2   -263.6017730757 -3.27D-01  6.11D-04  5.18D-02     9.9
                                                     6.11D-04  5.18D-02
 Grid integrated density:          25.999996682914
 Requested integration accuracy:   0.10E-07
 d= 0,ls=0.0,diis     3   -263.5980160199  3.76D-03  3.22D-04  8.59D-02    10.8
                                                     3.22D-04  8.59D-02
 Grid integrated density:          25.999996628583
 Requested integration accuracy:   0.10E-07
 d= 0,ls=0.0,diis     4   -263.6118072510 -1.38D-02  4.12D-05  1.92D-04    11.6
                                                     4.12D-05  1.92D-04
 Grid integrated density:          25.999996629894
 Requested integration accuracy:   0.10E-07
 d= 0,ls=0.0,diis     5   -263.6118533395 -4.61D-05  8.09D-06  1.44D-05    12.5
                                                     8.09D-06  1.44D-05
 Grid integrated density:          25.999996629478
 Requested integration accuracy:   0.10E-07
 d= 0,ls=0.0,diis     6   -263.6118557666 -2.43D-06  2.81D-06  1.38D-06    13.4
                                                     2.81D-06  1.38D-06
 Grid integrated density:          25.999996629328
 Requested integration accuracy:   0.10E-07
 d= 0,ls=0.0,diis     7   -263.6118560976 -3.31D-07  5.00D-07  2.21D-08    14.3
                                                     5.00D-07  2.21D-08
 Grid integrated density:          25.999996629296
 Requested integration accuracy:   0.10E-07


      Total SO-DFT energy =     -263.611856106583
      One electron energy =     -473.021575451014
           Coulomb energy =      220.527024986931
    Exchange-Corr. energy =      -19.799253911478
 Nuclear repulsion energy =        8.681948268978

 Numeric. integr. density =       25.999996629296

     Total iterative time =     13.9s



                       DFT Final Molecular Orbital Analysis
                       ------------------------------------

 Vector    1  Occ=1.000000D+00  E=-7.172109D+00
              MO Center= -6.1D-07,  2.9D-09,  1.5D-02, r^2= 1.9D-01
  Bfn.         Coefficient        Function           Bfn.         Coefficient        Function  
  ----     -------------------  ------------         ----     -------------------  ------------
    63     1.630597  -0.488609  2 At s                 62    -1.088813   0.326263  2 At s          
    65     0.457750  -0.137165  2 At s                 66    -0.281895   0.084470  2 At s          
    67     0.205456  -0.061565  2 At s                 61    -0.199474   0.059772  2 At s          
    60     0.169255  -0.050717  2 At s                 68    -0.089862   0.026927  2 At s          
     7    -0.055067   0.016501  1 H  s                 69     0.039794  -0.011924  2 At s          

 Vector    2  Occ=1.000000D+00  E=-7.172109D+00
              MO Center=  6.1D-07,  3.8D-14,  2.0D-07, r^2= 2.5D-06
  Bfn.         Coefficient        Function           Bfn.         Coefficient        Function  
  ----     -------------------  ------------         ----     -------------------  ------------
   294    -1.702230  -0.000000  2 At s                293     1.136645   0.000000  2 At s          
   296    -0.477860  -0.000000  2 At s                297     0.294279   0.000000  2 At s          
   298    -0.214481  -0.000000  2 At s                292     0.208237   0.000000  2 At s          
   291    -0.176690  -0.000000  2 At s                299     0.093810   0.000000  2 At s          
   238     0.057486   0.000000  1 H  s                300    -0.041542  -0.000000  2 At s          

 Vector    3  Occ=1.000000D+00  E=-5.339988D+00
              MO Center=  3.1D-06, -1.9D-07,  5.9D-03, r^2= 7.3D-02
  Bfn.         Coefficient        Function           Bfn.         Coefficient        Function  
  ----     -------------------  ------------         ----     -------------------  ------------
    82    -0.515753   0.111865  2 At pz               312    -0.109336  -0.504094  2 At py         
   311    -0.504094   0.109336  2 At px               305     0.139169  -0.030185  2 At px         
   306     0.030185   0.139169  2 At py                76     0.138468  -0.030033  2 At pz         
    88    -0.119489   0.025917  2 At pz               314    -0.100994   0.021905  2 At px         
   315    -0.021905  -0.100994  2 At py               318    -0.021188  -0.097688  2 At py         

 Vector    4  Occ=1.000000D+00  E=-5.339988D+00
              MO Center= -3.2D-06,  1.0D-10,  5.7D-03, r^2= 7.5D-02
  Bfn.         Coefficient        Function           Bfn.         Coefficient        Function  
  ----     -------------------  ------------         ----     -------------------  ------------
   313    -0.527745  -0.000002  2 At pz                81     0.000002  -0.515815  2 At py         
    80     0.515815   0.000002  2 At px                74    -0.142405  -0.000001  2 At px         
    75    -0.000001   0.142405  2 At py               307     0.141688   0.000001  2 At pz         
   319    -0.122268  -0.000001  2 At pz                83     0.103342   0.000000  2 At px         
    84     0.000000  -0.103342  2 At py                87     0.000000  -0.099959  2 At py         

 Vector    5  Occ=1.000000D+00  E=-4.235568D+00
              MO Center= -8.3D-07,  8.8D-11,  2.8D-03, r^2= 4.6D-02
  Bfn.         Coefficient        Function           Bfn.         Coefficient        Function  
  ----     -------------------  ------------         ----     -------------------  ------------
   313     0.712592   0.000005  2 At pz                81     0.000003  -0.354128  2 At py         
    80     0.354128   0.000003  2 At px               310    -0.277291  -0.000002  2 At pz         
   319     0.221514   0.000002  2 At pz               316     0.217423   0.000002  2 At pz         
    78    -0.000001   0.136373  2 At py                77    -0.136373  -0.000001  2 At px         
    84     0.000001  -0.121356  2 At py                83     0.121356   0.000001  2 At px         

 Vector    6  Occ=1.000000D+00  E=-4.235568D+00
              MO Center=  8.8D-07, -5.0D-08,  5.5D-03, r^2= 8.9D-02
  Bfn.         Coefficient        Function           Bfn.         Coefficient        Function  
  ----     -------------------  ------------         ----     -------------------  ------------
    82    -0.498413  -0.509286  2 At pz               312    -0.253093   0.247690  2 At py         
   311     0.247690   0.253093  2 At px                79     0.193948   0.198179  2 At pz         
    88    -0.154935  -0.158315  2 At pz                85    -0.152074  -0.155391  2 At pz         
   309     0.097465  -0.095384  2 At py               308    -0.095384  -0.097465  2 At px         
   315    -0.086733   0.084881  2 At py               314     0.084881   0.086733  2 At px         

 Vector    7  Occ=1.000000D+00  E=-4.229170D+00
              MO Center=  1.5D-07, -2.1D-08,  8.3D-03, r^2= 1.4D-01
  Bfn.         Coefficient        Function           Bfn.         Coefficient        Function  
  ----     -------------------  ------------         ----     -------------------  ------------
    81     0.161799   0.588111  2 At py                80     0.588111  -0.161799  2 At px         
    78    -0.062673  -0.227805  2 At py                77    -0.227805   0.062673  2 At px         
    84     0.055620   0.202170  2 At py                83     0.202170  -0.055620  2 At px         
    87     0.043995   0.159915  2 At py                86     0.159915  -0.043995  2 At px         
    75    -0.018278  -0.066437  2 At py                74    -0.066437   0.018278  2 At px         

 Vector    8  Occ=1.000000D+00  E=-4.229170D+00
              MO Center= -5.7D-08, -1.4D-07,  9.7D-07, r^2= 1.6D-05
  Bfn.         Coefficient        Function           Bfn.         Coefficient        Function  
  ----     -------------------  ------------         ----     -------------------  ------------
   312    -0.431227   0.431389  2 At py               311    -0.431389  -0.431227  2 At px         
   309     0.167036  -0.167098  2 At py               308     0.167099   0.167036  2 At px         
   315    -0.148239   0.148295  2 At py               314    -0.148295  -0.148239  2 At px         
   318    -0.117256   0.117300  2 At py               317    -0.117300  -0.117256  2 At px         
   306     0.048714  -0.048732  2 At py               305     0.048732   0.048714  2 At px         

 Vector    9  Occ=1.000000D+00  E=-1.638084D+00
              MO Center=  2.0D-06,  2.0D-12,  4.2D-03, r^2= 1.1D-01
  Bfn.         Coefficient        Function           Bfn.         Coefficient        Function  
  ----     -------------------  ------------         ----     -------------------  ------------
   352    -0.310308   0.000000  2 At d  0             122    -0.253624   0.000000  2 At d  1       
   120    -0.000000  -0.253624  2 At d -1             357    -0.248111   0.000000  2 At d  0       
   127    -0.204308   0.000000  2 At d  1             125    -0.000000  -0.204308  2 At d -1       
   362    -0.155441   0.000000  2 At d  0             132    -0.122995   0.000000  2 At d  1       
   130    -0.000000  -0.122995  2 At d -1             342     0.034844  -0.000000  2 At d  0       

 Vector   10  Occ=1.000000D+00  E=-1.638084D+00
              MO Center= -2.1D-06, -1.1D-07,  1.8D-03, r^2= 1.1D-01
  Bfn.         Coefficient        Function           Bfn.         Coefficient        Function  
  ----     -------------------  ------------         ----     -------------------  ------------
   121    -0.249827   0.184057  2 At d  0             353     0.204192  -0.150436  2 At d  1       
   351    -0.150436  -0.204192  2 At d -1             126    -0.199753   0.147166  2 At d  0       
   358     0.164488  -0.121184  2 At d  1             356    -0.121184  -0.164488  2 At d -1       
   131    -0.125145   0.092199  2 At d  0             363     0.099023  -0.072954  2 At d  1       
   361    -0.072954  -0.099023  2 At d -1             111     0.028053  -0.020668  2 At d  0       

 Vector   11  Occ=1.000000D+00  E=-1.627537D+00
              MO Center= -3.8D-07, -2.4D-07,  6.5D-03, r^2= 1.5D-01
  Bfn.         Coefficient        Function           Bfn.         Coefficient        Function  
  ----     -------------------  ------------         ----     -------------------  ------------
   119     0.023875   0.295484  2 At d -2             123    -0.295482   0.023875  2 At d  2       
   124     0.019269   0.238479  2 At d -2             128    -0.238477   0.019269  2 At d  2       
   351    -0.012679  -0.156926  2 At d -1             353    -0.156926   0.012680  2 At d  1       
   129     0.011480   0.142081  2 At d -2             133    -0.142080   0.011480  2 At d  2       
   356    -0.010280  -0.127224  2 At d -1             358    -0.127224   0.010280  2 At d  1       

 Vector   12  Occ=1.000000D+00  E=-1.627537D+00
              MO Center= -3.5D-07,  3.0D-07,  1.8D-03, r^2= 4.4D-02
  Bfn.         Coefficient        Function           Bfn.         Coefficient        Function  
  ----     -------------------  ------------         ----     -------------------  ------------
   350    -0.296447  -0.000101  2 At d -2             354    -0.000101   0.296445  2 At d  2       
   355    -0.239256  -0.000081  2 At d -2             359    -0.000081   0.239254  2 At d  2       
   120    -0.157437  -0.000053  2 At d -1             122     0.000053  -0.157437  2 At d  1       
   360    -0.142544  -0.000048  2 At d -2             364    -0.000048   0.142543  2 At d  2       
   125    -0.127639  -0.000043  2 At d -1             127     0.000043  -0.127639  2 At d  1       

 Vector   13  Occ=1.000000D+00  E=-1.496757D+00
              MO Center=  3.3D-06,  4.3D-11,  3.5D-03, r^2= 9.1D-02
  Bfn.         Coefficient        Function           Bfn.         Coefficient        Function  
  ----     -------------------  ------------         ----     -------------------  ------------
   352    -0.337009  -0.000000  2 At d  0             357    -0.295981  -0.000000  2 At d  0       
   122     0.209089   0.000000  2 At d  1             120    -0.000000   0.209089  2 At d -1       
   362    -0.191842  -0.000000  2 At d  0             127     0.184281   0.000000  2 At d  1       
   125    -0.000000   0.184281  2 At d -1             132     0.115612   0.000000  2 At d  1       
   130    -0.000000   0.115612  2 At d -1             297    -0.034593  -0.000000  2 At s          

 Vector   14  Occ=1.000000D+00  E=-1.496757D+00
              MO Center= -3.3D-06,  3.5D-08,  6.2D-04, r^2= 1.1D-01
  Bfn.         Coefficient        Function           Bfn.         Coefficient        Function  
  ----     -------------------  ------------         ----     -------------------  ------------
   121     0.229175  -0.247091  2 At d  0             126     0.201275  -0.217010  2 At d  0       
   353     0.142186  -0.153302  2 At d  1             351    -0.153302  -0.142186  2 At d -1       
   131     0.130457  -0.140656  2 At d  0             358     0.125316  -0.135112  2 At d  1       
   356    -0.135112  -0.125316  2 At d -1             363     0.078619  -0.084766  2 At d  1       
   361    -0.084766  -0.078619  2 At d -1              66     0.023524  -0.025363  2 At s          

 Vector   15  Occ=1.000000D+00  E=-1.488964D+00
              MO Center= -2.3D-06, -9.7D-06,  1.9D-03, r^2= 4.9D-02
  Bfn.         Coefficient        Function           Bfn.         Coefficient        Function  
  ----     -------------------  ------------         ----     -------------------  ------------
   353     0.260577   0.096202  2 At d  1             351    -0.096202   0.260577  2 At d -1       
   358     0.230827   0.085219  2 At d  1             356    -0.085219   0.230827  2 At d -1       
   363     0.145165   0.053593  2 At d  1             361    -0.053593   0.145165  2 At d -1       
   119    -0.051607   0.139785  2 At d -2             123    -0.139760  -0.051598  2 At d  2       
   124    -0.045470   0.123161  2 At d -2             128    -0.123140  -0.045462  2 At d  2       

 Vector   16  Occ=1.000000D+00  E=-1.488964D+00
              MO Center= -8.1D-06,  5.9D-06,  5.9D-03, r^2= 1.6D-01
  Bfn.         Coefficient        Function           Bfn.         Coefficient        Function  
  ----     -------------------  ------------         ----     -------------------  ------------
   122    -0.000906  -0.277767  2 At d  1             120    -0.277767   0.000906  2 At d -1       
   127    -0.000802  -0.246054  2 At d  1             125    -0.246054   0.000802  2 At d -1       
   132    -0.000505  -0.154741  2 At d  1             130    -0.154741   0.000505  2 At d -1       
   350     0.149006  -0.000486  2 At d -2             354    -0.000486  -0.148980  2 At d  2       
   355     0.131286  -0.000428  2 At d -2             359    -0.000428  -0.131263  2 At d  2       

 Vector   17  Occ=1.000000D+00  E=-1.481608D+00
              MO Center=  3.1D-08,  5.5D-08,  8.3D-03, r^2= 2.1D-01
  Bfn.         Coefficient        Function           Bfn.         Coefficient        Function  
  ----     -------------------  ------------         ----     -------------------  ------------
   123    -0.287468   0.136987  2 At d  2             119    -0.136981  -0.287455  2 At d -2       
   128    -0.254477   0.121266  2 At d  2             124    -0.121261  -0.254466  2 At d -2       
   133    -0.158365   0.075466  2 At d  2             129    -0.075462  -0.158358  2 At d -2       
   113     0.027033  -0.012882  2 At d  2             109     0.012881   0.027032  2 At d -2       
   138    -0.023865   0.011373  2 At d  2             134    -0.011372  -0.023864  2 At d -2       

 Vector   18  Occ=1.000000D+00  E=-1.481608D+00
              MO Center= -2.3D-08, -5.8D-08,  4.5D-07, r^2= 1.2D-05
  Bfn.         Coefficient        Function           Bfn.         Coefficient        Function  
  ----     -------------------  ------------         ----     -------------------  ------------
   354    -0.000149  -0.318439  2 At d  2             350    -0.318425   0.000149  2 At d -2       
   359    -0.000132  -0.281894  2 At d  2             355    -0.281881   0.000132  2 At d -2       
   364    -0.000082  -0.175427  2 At d  2             360    -0.175419   0.000082  2 At d -2       
   344     0.000014   0.029945  2 At d  2             340     0.029944  -0.000014  2 At d -2       
   369    -0.000012  -0.026437  2 At d  2             365    -0.026435   0.000012  2 At d -2       

 Vector   19  Occ=1.000000D+00  E=-7.983233D-01
              MO Center=  2.5D-05, -3.9D-13, -3.0D-05, r^2= 1.4D-04
  Bfn.         Coefficient        Function           Bfn.         Coefficient        Function  
  ----     -------------------  ------------         ----     -------------------  ------------
   294     0.985750  -0.000000  2 At s                297    -0.844963   0.000000  2 At s          
   293    -0.483038   0.000000  2 At s                295     0.248865  -0.000000  2 At s          
   298    -0.203064   0.000000  2 At s                292    -0.170782   0.000000  2 At s          
   299    -0.123779   0.000000  2 At s                238    -0.105903   0.000000  1 H  s          
   291     0.094818  -0.000000  2 At s                237    -0.089523   0.000000  1 H  s          

 Vector   20  Occ=1.000000D+00  E=-7.983233D-01
              MO Center= -2.6D-05, -1.2D-06, -1.4D-01, r^2= 9.3D-01
  Bfn.         Coefficient        Function           Bfn.         Coefficient        Function  
  ----     -------------------  ------------         ----     -------------------  ------------
    63     0.838608  -0.518113  2 At s                 66    -0.718835   0.444114  2 At s          
    62    -0.410935   0.253886  2 At s                 64     0.211717  -0.130804  2 At s          
    67    -0.172753   0.106731  2 At s                 61    -0.145289   0.089763  2 At s          
    68    -0.105303   0.065059  2 At s                  7    -0.090095   0.055663  1 H  s          
    60     0.080664  -0.049836  2 At s                  6    -0.076160   0.047053  1 H  s          

 Vector   21  Occ=1.000000D+00  E=-4.405628D-01
              MO Center= -1.1D-04, -1.2D-09, -6.7D-04, r^2= 9.9D-02
  Bfn.         Coefficient        Function           Bfn.         Coefficient        Function  
  ----     -------------------  ------------         ----     -------------------  ------------
   322    -0.342534  -0.000004  2 At pz               313     0.314756   0.000004  2 At pz         
   297    -0.273147  -0.000003  2 At s                294     0.254154   0.000003  2 At s          
   237     0.201874   0.000002  1 H  s                238     0.190637   0.000002  1 H  s          
   325    -0.189018  -0.000002  2 At pz                89     0.132943   0.000002  2 At px         
    90     0.000002  -0.132943  2 At py               293    -0.121649  -0.000001  2 At s          

 Vector   22  Occ=1.000000D+00  E=-4.405628D-01
              MO Center=  5.7D-05, -7.7D-05, -2.0D-01, r^2= 1.2D+00
  Bfn.         Coefficient        Function           Bfn.         Coefficient        Function  
  ----     -------------------  ------------         ----     -------------------  ------------
    91    -0.282269   0.194045  2 At pz                82     0.259378  -0.178309  2 At pz         
    66    -0.225090   0.154738  2 At s                 63     0.209439  -0.143979  2 At s          
     6     0.166357  -0.114362  1 H  s                  7     0.157096  -0.107996  1 H  s          
    94    -0.155762   0.107079  2 At pz               320    -0.109553   0.075312  2 At px         
   321    -0.075312  -0.109553  2 At py                62    -0.100246   0.068914  2 At s          

 Vector   23  Occ=1.000000D+00  E=-3.081553D-01
              MO Center=  3.9D-04,  3.2D-08, -4.2D-03, r^2= 8.8D-01
  Bfn.         Coefficient        Function           Bfn.         Coefficient        Function  
  ----     -------------------  ------------         ----     -------------------  ------------
    89    -0.319371  -0.000024  2 At px                90    -0.000024   0.319371  2 At py         
    80     0.263858   0.000020  2 At px                81     0.000020  -0.263858  2 At py         
    92    -0.229343  -0.000017  2 At px                93    -0.000017   0.229343  2 At py         
    96    -0.000011   0.141126  2 At py                95    -0.141126  -0.000011  2 At px         
   238     0.130708   0.000010  1 H  s                297    -0.119663  -0.000009  2 At s          

 Vector   24  Occ=1.000000D+00  E=-3.081553D-01
              MO Center= -2.7D-04,  1.7D-04, -9.4D-02, r^2= 2.7D-01
  Bfn.         Coefficient        Function           Bfn.         Coefficient        Function  
  ----     -------------------  ------------         ----     -------------------  ------------
   320     0.259484  -0.186187  2 At px               321     0.186187   0.259484  2 At py         
   311    -0.214381   0.153824  2 At px               312    -0.153824  -0.214381  2 At py         
   323     0.186338  -0.133703  2 At px               324     0.133703   0.186338  2 At py         
   327     0.082274   0.114663  2 At py               326     0.114663  -0.082274  2 At px         
     7     0.106198  -0.076200  1 H  s                 66    -0.097224   0.069761  2 At s          

 Vector   25  Occ=1.000000D+00  E=-2.466764D-01
              MO Center=  2.2D-05, -2.2D-05, -2.0D-05, r^2= 2.1D-03
  Bfn.         Coefficient        Function           Bfn.         Coefficient        Function  
  ----     -------------------  ------------         ----     -------------------  ------------
   320    -0.217973  -0.217543  2 At px               321    -0.217544   0.217973  2 At py         
   324    -0.184327   0.184690  2 At py               323    -0.184690  -0.184327  2 At px         
   311     0.182428   0.182069  2 At px               312     0.182069  -0.182428  2 At py         
   327    -0.139343   0.139618  2 At py               326    -0.139618  -0.139343  2 At px         
   315     0.079695  -0.079852  2 At py               314     0.079852   0.079695  2 At px         

 Vector   26  Occ=1.000000D+00  E=-2.466764D-01
              MO Center= -2.3D-05,  2.1D-05, -1.2D-02, r^2= 1.2D+00
  Bfn.         Coefficient        Function           Bfn.         Coefficient        Function  
  ----     -------------------  ------------         ----     -------------------  ------------
    89    -0.006862   0.307880  2 At px                90    -0.307880  -0.006862  2 At py         
    93    -0.260870  -0.005814  2 At py                92    -0.005814   0.260870  2 At px         
    80     0.005743  -0.257674  2 At px                81     0.257674   0.005743  2 At py         
    96    -0.197206  -0.004395  2 At py                95    -0.004395   0.197206  2 At px         
    84     0.112789   0.002514  2 At py                83     0.002514  -0.112789  2 At px         

 Vector   27  Occ=0.000000D+00  E=-2.210139D-02
              MO Center=  7.6D-05, -2.8D-05, -2.6D-02, r^2= 6.9D+00
  Bfn.         Coefficient        Function           Bfn.         Coefficient        Function  
  ----     -------------------  ------------         ----     -------------------  ------------
    70     0.918653  -0.631809  2 At s                 69    -0.553415   0.380614  2 At s          
     8     0.509612  -0.350489  1 H  s                 97     0.310198  -0.213341  2 At pz         
    67    -0.263505   0.181227  2 At s                 63     0.241423  -0.166040  2 At s          
    66    -0.214819   0.147743  2 At s                 91     0.146581  -0.100812  2 At pz         
   100     0.117075  -0.080519  2 At pz                62    -0.114379   0.078665  2 At s          

 Vector   28  Occ=0.000000D+00  E=-2.210139D-02
              MO Center= -9.4D-05, -4.4D-10, -1.1D-03, r^2= 5.7D-02
  Bfn.         Coefficient        Function           Bfn.         Coefficient        Function  
  ----     -------------------  ------------         ----     -------------------  ------------
   301    -1.114947  -0.000000  2 At s                300     0.671666   0.000000  2 At s          
   239    -0.618504  -0.000000  1 H  s                328    -0.376480  -0.000000  2 At pz         
   298     0.319810   0.000000  2 At s                294    -0.293010  -0.000000  2 At s          
   297     0.260721   0.000000  2 At s                322    -0.177902  -0.000000  2 At pz         
   331    -0.142091  -0.000000  2 At pz               293     0.138819   0.000000  2 At s          

 Vector   29  Occ=0.000000D+00  E= 1.219512D-02
              MO Center= -2.3D-03, -5.1D-05, -1.1D-01, r^2= 2.2D+00
  Bfn.         Coefficient        Function           Bfn.         Coefficient        Function  
  ----     -------------------  ------------         ----     -------------------  ------------
    70    -0.634080   1.288664  2 At s                 69     0.621290  -1.262670  2 At s          
    68    -0.576923   1.172501  2 At s                  7     0.266404  -0.541423  1 H  s          
    97     0.238012  -0.483721  2 At pz                67     0.202502  -0.411553  2 At s          
   103     0.185272  -0.376535  2 At pz               151     0.154719  -0.314440  2 At d  0       
     8     0.148891  -0.302597  1 H  s                 66    -0.139674   0.283864  2 At s          

 Vector   30  Occ=0.000000D+00  E= 1.219512D-02
              MO Center=  2.2D-03, -1.0D-08, -6.6D-03, r^2= 5.5D-01
  Bfn.         Coefficient        Function           Bfn.         Coefficient        Function  
  ----     -------------------  ------------         ----     -------------------  ------------
   301     1.436215  -0.000003  2 At s                300    -1.407244   0.000003  2 At s          
   299     1.306751  -0.000002  2 At s                238    -0.603415   0.000001  1 H  s          
   328    -0.539107   0.000001  2 At pz               298    -0.458675   0.000001  2 At s          
   334    -0.419647   0.000001  2 At pz               382    -0.350443   0.000001  2 At d  0       
   239    -0.337244   0.000001  1 H  s                297     0.316366  -0.000001  2 At s          

 Vector   31  Occ=0.000000D+00  E= 2.054977D-02
              MO Center=  4.5D-04, -3.0D-08, -9.7D-03, r^2= 3.1D+00
  Bfn.         Coefficient        Function           Bfn.         Coefficient        Function  
  ----     -------------------  ------------         ----     -------------------  ------------
   334     1.376439   0.000020  2 At pz               331    -1.009152  -0.000015  2 At pz         
   101    -0.581034  -0.000009  2 At px               102    -0.000009   0.581034  2 At py         
   239    -0.421269  -0.000006  1 H  s                328     0.406793   0.000006  2 At pz         
    98     0.365162   0.000005  2 At px                99     0.000005  -0.365162  2 At py         
   325    -0.325005  -0.000005  2 At pz               299     0.301884   0.000004  2 At s          

 Vector   32  Occ=0.000000D+00  E= 2.054977D-02
              MO Center= -9.1D-04,  3.0D-04,  9.2D-02, r^2= 5.0D+00
  Bfn.         Coefficient        Function           Bfn.         Coefficient        Function  
  ----     -------------------  ------------         ----     -------------------  ------------
   103     0.754333   1.151333  2 At pz               100    -0.553048  -0.844113  2 At pz         
   332     0.318425   0.486010  2 At px               333    -0.486010   0.318425  2 At py         
     8    -0.230869  -0.352373  1 H  s                 97     0.222936   0.340265  2 At pz         
   329    -0.200121  -0.305442  2 At px               330     0.305442  -0.200120  2 At py         
    94    -0.178113  -0.271853  2 At pz                68     0.165442   0.252513  2 At s          

 Vector   33  Occ=0.000000D+00  E= 2.662562D-02
              MO Center=  1.8D-02, -4.3D-07, -9.5D-03, r^2= 8.4D+00
  Bfn.         Coefficient        Function           Bfn.         Coefficient        Function  
  ----     -------------------  ------------         ----     -------------------  ------------
   101     1.034858  -0.000019  2 At px               102    -0.000019  -1.034851  2 At py         
   334     0.843334  -0.000016  2 At pz                98    -0.768463   0.000014  2 At px         
    99     0.000014   0.768458  2 At py               331    -0.727335   0.000014  2 At pz         
   299     0.570271  -0.000011  2 At s                301     0.481507  -0.000009  2 At s          
   300    -0.420910   0.000008  2 At s                 95     0.414180  -0.000008  2 At px         

 Vector   34  Occ=0.000000D+00  E= 2.662562D-02
              MO Center= -1.8D-02, -3.5D-04,  4.8D-02, r^2= 4.5D+00
  Bfn.         Coefficient        Function           Bfn.         Coefficient        Function  
  ----     -------------------  ------------         ----     -------------------  ------------
   332    -0.855432  -0.582381  2 At px               333     0.582376  -0.855426  2 At py         
   103     0.697115   0.474598  2 At pz               329     0.635225   0.432463  2 At px         
   330    -0.432460   0.635221  2 At py               100    -0.601228  -0.409318  2 At pz         
    68     0.471397   0.320928  2 At s                 70     0.398022   0.270975  2 At s          
    69    -0.347932  -0.236873  2 At s                326    -0.342368  -0.233086  2 At px         

 Vector   35  Occ=0.000000D+00  E= 2.729540D-02
              MO Center= -1.6D-05,  2.0D-05, -1.5D-02, r^2= 1.3D+01
  Bfn.         Coefficient        Function           Bfn.         Coefficient        Function  
  ----     -------------------  ------------         ----     -------------------  ------------
   102    -1.278972  -0.020780  2 At py               101    -0.020780   1.278966  2 At px         
    99     0.965424   0.015686  2 At py                98     0.015686  -0.965420  2 At px         
    96    -0.512520  -0.008327  2 At py                95    -0.008327   0.512518  2 At px         
    93     0.391700   0.006364  2 At py                92     0.006364  -0.391698  2 At px         
    90    -0.082500  -0.001340  2 At py                89    -0.001340   0.082499  2 At px         

 Vector   36  Occ=0.000000D+00  E= 2.729540D-02
              MO Center=  2.0D-05, -1.3D-05, -8.0D-06, r^2= 6.6D-03
  Bfn.         Coefficient        Function           Bfn.         Coefficient        Function  
  ----     -------------------  ------------         ----     -------------------  ------------
   333    -0.958058   0.847541  2 At py               332    -0.847537  -0.958054  2 At px         
   330     0.723184  -0.639761  2 At py               329     0.639758   0.723181  2 At px         
   327    -0.383921   0.339634  2 At py               326    -0.339632  -0.383919  2 At px         
   324     0.293416  -0.259569  2 At py               323     0.259568   0.293415  2 At px         
   321    -0.061799   0.054670  2 At py               320    -0.054670  -0.061799  2 At px         

 Vector   37  Occ=0.000000D+00  E= 5.944131D-02
              MO Center=  9.6D-06,  7.5D-08,  1.2D-02, r^2= 6.3D+00
  Bfn.         Coefficient        Function           Bfn.         Coefficient        Function  
  ----     -------------------  ------------         ----     -------------------  ------------
   152     0.825365   0.006694  2 At d  1             150    -0.006688   0.825346  2 At d -1       
   147    -0.319381  -0.002590  2 At d  1             145     0.002588  -0.319373  2 At d -1       
   142     0.282434   0.002291  2 At d  1             140    -0.002289   0.282428  2 At d -1       
   300    -0.115152  -0.000934  2 At s                299     0.094914   0.000770  2 At s          
    98     0.081676   0.000662  2 At px                99     0.000662  -0.081675  2 At py         

 Vector   38  Occ=0.000000D+00  E= 5.944131D-02
              MO Center= -5.4D-06,  8.9D-06,  1.1D-04, r^2= 3.3D-02
  Bfn.         Coefficient        Function           Bfn.         Coefficient        Function  
  ----     -------------------  ------------         ----     -------------------  ------------
   383     0.747141  -0.350789  2 At d  1             381    -0.350775  -0.747126  2 At d -1       
   378    -0.289112   0.135740  2 At d  1             376     0.135735   0.289106  2 At d -1       
   373     0.255667  -0.120037  2 At d  1             371    -0.120033  -0.255661  2 At d -1       
    69     0.104239  -0.048941  2 At s                 68    -0.085919   0.040339  2 At s          
   329     0.073935  -0.034713  2 At px               330     0.034712   0.073935  2 At py         

 Vector   39  Occ=0.000000D+00  E= 5.955842D-02
              MO Center=  2.9D-04, -2.6D-04,  3.8D-04, r^2= 4.1D-01
  Bfn.         Coefficient        Function           Bfn.         Coefficient        Function  
  ----     -------------------  ------------         ----     -------------------  ------------
   381    -0.560036   0.576107  2 At d -1             383     0.576097   0.560020  2 At d  1       
   376     0.217673  -0.223919  2 At d -1             378    -0.223915  -0.217666  2 At d  1       
   371    -0.190910   0.196388  2 At d -1             373     0.196384   0.190904  2 At d  1       
   150     0.204219   0.013987  2 At d -1             152    -0.013990   0.204215  2 At d  1       
   366     0.055967  -0.057572  2 At d -1             368    -0.057572  -0.055965  2 At d  1       

 Vector   40  Occ=0.000000D+00  E= 5.955842D-02
              MO Center= -2.2D-04,  3.3D-04,  5.5D-03, r^2= 6.0D+00
  Bfn.         Coefficient        Function           Bfn.         Coefficient        Function  
  ----     -------------------  ------------         ----     -------------------  ------------
   150     0.801998  -0.048358  2 At d -1             152     0.048351   0.801980  2 At d  1       
   145    -0.311718   0.018795  2 At d -1             147    -0.018793  -0.311711  2 At d  1       
   140     0.273391  -0.016485  2 At d -1             142     0.016482   0.273385  2 At d  1       
   381     0.122679  -0.163863  2 At d -1             383    -0.163862  -0.122674  2 At d  1       
   135    -0.080147   0.004833  2 At d -1             137    -0.004832  -0.080145  2 At d  1       

 Vector   41  Occ=0.000000D+00  E= 6.533192D-02
              MO Center= -1.2D-04,  4.4D-04,  3.2D-04, r^2= 3.3D-01
  Bfn.         Coefficient        Function           Bfn.         Coefficient        Function  
  ----     -------------------  ------------         ----     -------------------  ------------
   380     0.864026   0.003268  2 At d -2             384     0.003268  -0.864000  2 At d  2       
   375    -0.382559  -0.001447  2 At d -2             379    -0.001447   0.382548  2 At d  2       
   370     0.314075   0.001188  2 At d -2             374     0.001188  -0.314066  2 At d  2       
   149     0.046883  -0.181717  2 At d -2             153     0.181711   0.046883  2 At d  2       
   365    -0.093111  -0.000352  2 At d -2             369    -0.000352   0.093108  2 At d  2       

 Vector   42  Occ=0.000000D+00  E= 6.533192D-02
              MO Center=  1.3D-04, -4.4D-04,  5.6D-03, r^2= 6.4D+00
  Bfn.         Coefficient        Function           Bfn.         Coefficient        Function  
  ----     -------------------  ------------         ----     -------------------  ------------
   149     0.226911  -0.833704  2 At d -2             153     0.833680   0.226904  2 At d  2       
   144    -0.100468   0.369134  2 At d -2             148    -0.369123  -0.100465  2 At d  2       
   139     0.082483  -0.303053  2 At d -2             143     0.303044   0.082480  2 At d  2       
   380    -0.187640  -0.003194  2 At d -2             384    -0.003193   0.187634  2 At d  2       
   134    -0.024453   0.089843  2 At d -2             138    -0.089840  -0.024452  2 At d  2       

 Vector   43  Occ=0.000000D+00  E= 6.545064D-02
              MO Center=  4.8D-07, -3.5D-06,  3.7D-05, r^2= 4.3D-02
  Bfn.         Coefficient        Function           Bfn.         Coefficient        Function  
  ----     -------------------  ------------         ----     -------------------  ------------
   384     0.004202   0.887616  2 At d  2             380     0.887590  -0.004202  2 At d -2       
   379    -0.001869  -0.394755  2 At d  2             375    -0.394743   0.001869  2 At d -2       
   374     0.001517   0.320487  2 At d  2             370     0.320478  -0.001517  2 At d -2       
   369    -0.000470  -0.099368  2 At d  2             365    -0.099366   0.000470  2 At d -2       
   153    -0.070333  -0.009934  2 At d  2             149     0.009933  -0.070332  2 At d -2       

 Vector   44  Occ=0.000000D+00  E= 6.545064D-02
              MO Center= -3.2D-07,  3.7D-06,  5.8D-03, r^2= 6.7D+00
  Bfn.         Coefficient        Function           Bfn.         Coefficient        Function  
  ----     -------------------  ------------         ----     -------------------  ------------
   153     0.880506   0.112198  2 At d  2             149    -0.112194   0.880480  2 At d -2       
   148    -0.391593  -0.049898  2 At d  2             144     0.049897  -0.391581  2 At d -2       
   143     0.317920   0.040511  2 At d  2             139    -0.040509   0.317911  2 At d -2       
   138    -0.098573  -0.012560  2 At d  2             134     0.012560  -0.098570  2 At d -2       
   384     0.001300   0.071020  2 At d  2             380     0.071018  -0.001299  2 At d -2       

 Vector   45  Occ=0.000000D+00  E= 7.748809D-02
              MO Center=  3.5D-04, -6.7D-09,  7.0D-05, r^2= 1.5D-02
  Bfn.         Coefficient        Function           Bfn.         Coefficient        Function  
  ----     -------------------  ------------         ----     -------------------  ------------
   300     7.680372  -0.000147  2 At s                299    -5.274718   0.000101  2 At s          
   301    -3.842365   0.000074  2 At s                298     1.907751  -0.000037  2 At s          
   297    -1.533282   0.000029  2 At s                238     0.983419  -0.000019  1 H  s          
   296     0.640899  -0.000012  2 At s                325     0.572609  -0.000011  2 At pz         
   382    -0.523841   0.000010  2 At d  0             372    -0.521920   0.000010  2 At d  0       

 Vector   46  Occ=0.000000D+00  E= 7.748809D-02
              MO Center=  2.2D-05,  5.1D-05, -4.8D-03, r^2= 4.0D-01
  Bfn.         Coefficient        Function           Bfn.         Coefficient        Function  
  ----     -------------------  ------------         ----     -------------------  ------------
    69     1.054167  -7.607684  2 At s                 68    -0.723979   5.224797  2 At s          
    70    -0.527382   3.806000  2 At s                 67     0.261848  -1.889695  2 At s          
    66    -0.210450   1.518771  2 At s                  7     0.134979  -0.974112  1 H  s          
    65     0.087966  -0.634834  2 At s                 94     0.078593  -0.567190  2 At pz         
   151    -0.071900   0.518883  2 At d  0             141    -0.071636   0.516981  2 At d  0       

 Vector   47  Occ=0.000000D+00  E= 1.025202D-01
              MO Center= -6.9D-04,  9.4D-06, -2.2D-01, r^2= 1.8D+01
  Bfn.         Coefficient        Function           Bfn.         Coefficient        Function  
  ----     -------------------  ------------         ----     -------------------  ------------
   100     4.104778  -1.419829  2 At pz                69    -3.224138   1.115219  2 At s          
     8     2.546137  -0.880700  1 H  s                103    -1.899685   0.657095  2 At pz         
    97    -1.300388   0.449800  2 At pz                 7    -1.274692   0.440912  1 H  s          
   151    -1.234960   0.427168  2 At d  0              68     1.078008  -0.372879  2 At s          
    70     0.934238  -0.323150  2 At s                 91    -0.495834   0.171507  2 At pz         

 Vector   48  Occ=0.000000D+00  E= 1.025202D-01
              MO Center=  7.0D-04,  1.3D-09,  1.5D-04, r^2= 7.6D-02
  Bfn.         Coefficient        Function           Bfn.         Coefficient        Function  
  ----     -------------------  ------------         ----     -------------------  ------------
   331     4.343399   0.000008  2 At pz               300    -3.411565  -0.000007  2 At s          
   239     2.694151   0.000005  1 H  s                334    -2.010119  -0.000004  2 At pz         
   328    -1.375983  -0.000003  2 At pz               238    -1.348793  -0.000003  1 H  s          
   382    -1.306751  -0.000003  2 At d  0             299     1.140675   0.000002  2 At s          
   301     0.988547   0.000002  2 At s                322    -0.524658  -0.000001  2 At pz         

 Vector   49  Occ=0.000000D+00  E= 1.090914D-01
              MO Center= -3.0D-02,  9.5D-07,  6.5D-03, r^2= 5.9D+00
  Bfn.         Coefficient        Function           Bfn.         Coefficient        Function  
  ----     -------------------  ------------         ----     -------------------  ------------
   300     2.913802  -0.000092  2 At s                 98    -2.356454   0.000075  2 At px         
    99     0.000075   2.356454  2 At py               328    -1.606761   0.000051  2 At pz         
   331     1.439821  -0.000046  2 At pz               239    -1.438390   0.000046  1 H  s          
    95     1.385279  -0.000044  2 At px                96    -0.000044  -1.385279  2 At py         
   101     1.262168  -0.000040  2 At px               102    -0.000040  -1.262168  2 At py         

 Vector   50  Occ=0.000000D+00  E= 1.090914D-01
              MO Center=  3.0D-02,  3.7D-04,  4.5D-01, r^2= 8.4D+00
  Bfn.         Coefficient        Function           Bfn.         Coefficient        Function  
  ----     -------------------  ------------         ----     -------------------  ------------
    69     2.913194   0.059541  2 At s                329     2.355962   0.048152  2 At px         
   330    -0.048152   2.355962  2 At py                97    -1.606426  -0.032833  2 At pz         
   100     1.439520   0.029421  2 At pz                 8    -1.438089  -0.029392  1 H  s          
   326    -1.384990  -0.028307  2 At px               327     0.028307  -1.384990  2 At py         
   332    -1.261905  -0.025791  2 At px               333     0.025791  -1.261905  2 At py         

 Vector   51  Occ=0.000000D+00  E= 1.243568D-01
              MO Center=  3.2D-02, -2.5D-04,  4.1D-01, r^2= 9.5D+00
  Bfn.         Coefficient        Function           Bfn.         Coefficient        Function  
  ----     -------------------  ------------         ----     -------------------  ------------
    69     2.357050  -0.227057  2 At s                329    -2.342703   0.225674  2 At px         
   330    -0.225675  -2.342702  2 At py                97    -2.312138   0.222730  2 At pz         
   100     2.177324  -0.209744  2 At pz                 8    -1.528977   0.147288  1 H  s          
   326     1.514562  -0.145899  2 At px               327     0.145900   1.514561  2 At py         
   103    -1.231531   0.118635  2 At pz               332     1.164925  -0.112218  2 At px         

 Vector   52  Occ=0.000000D+00  E= 1.243568D-01
              MO Center= -3.2D-02, -1.9D-06,  8.9D-03, r^2= 5.0D+00
  Bfn.         Coefficient        Function           Bfn.         Coefficient        Function  
  ----     -------------------  ------------         ----     -------------------  ------------
   300    -2.367961  -0.000140  2 At s                 98    -2.353548  -0.000139  2 At px         
    99    -0.000140   2.353546  2 At py               328     2.322841   0.000138  2 At pz         
   331    -2.187403  -0.000130  2 At pz               239     1.536055   0.000091  1 H  s          
    95     1.521573   0.000090  2 At px                96     0.000091  -1.521572  2 At py         
   334     1.237232   0.000073  2 At pz               101     1.170317   0.000069  2 At px         

 Vector   53  Occ=0.000000D+00  E= 1.256384D-01
              MO Center=  3.6D-05, -1.3D-05,  2.5D-03, r^2= 2.1D+00
  Bfn.         Coefficient        Function           Bfn.         Coefficient        Function  
  ----     -------------------  ------------         ----     -------------------  ------------
   330     2.233224  -2.208964  2 At py               329     2.208962   2.233225  2 At px         
   327    -1.454585   1.438784  2 At py               326    -1.438782  -1.454586  2 At px         
   333    -1.104228   1.092232  2 At py               332    -1.092231  -1.104228  2 At px         
    98     0.617508  -1.411889  2 At px                99     1.411890   0.617503  2 At py         
    95    -0.402207   0.919618  2 At px                96    -0.919618  -0.402204  2 At py         

 Vector   54  Occ=0.000000D+00  E= 1.256384D-01
              MO Center= -3.8D-05, -1.0D-06,  1.0D-02, r^2= 8.7D+00
  Bfn.         Coefficient        Function           Bfn.         Coefficient        Function  
  ----     -------------------  ------------         ----     -------------------  ------------
    99    -2.558493  -1.822341  2 At py                98    -1.822338   2.558494  2 At px         
    96     1.666446   1.186961  2 At py                95     1.186959  -1.666446  2 At px         
   102     1.265058   0.901065  2 At py               101     0.901063  -1.265059  2 At px         
   329     0.835885   1.294621  2 At px               330     1.294622  -0.835880  2 At py         
   326    -0.544444  -0.843237  2 At px               327    -0.843238   0.544441  2 At py         

 Vector   55  Occ=0.000000D+00  E= 1.789571D-01
              MO Center=  2.7D-03,  1.5D-03, -4.8D-03, r^2= 2.8D-01
  Bfn.         Coefficient        Function           Bfn.         Coefficient        Function  
  ----     -------------------  ------------         ----     -------------------  ------------
   378    -1.204864  -1.014438  2 At d  1             376    -1.014442   1.204858  2 At d -1       
   383     0.877735   0.739011  2 At d  1             381     0.739013  -0.877730  2 At d -1       
     8    -0.553320  -0.465871  1 H  s                373     0.415830   0.350109  2 At d  1       
   371     0.350110  -0.415828  2 At d -1              69     0.409137   0.344475  2 At s          
   368    -0.298973  -0.251721  2 At d  1             366    -0.251722   0.298971  2 At d -1       

 Vector   56  Occ=0.000000D+00  E= 1.789571D-01
              MO Center= -4.0D-03,  7.0D-05, -5.4D-02, r^2= 5.6D+00
  Bfn.         Coefficient        Function           Bfn.         Coefficient        Function  
  ----     -------------------  ------------         ----     -------------------  ------------
   147    -1.574806   0.027729  2 At d  1             145    -0.027736  -1.574803  2 At d -1       
   152     1.147235  -0.020200  2 At d  1             150     0.020205   1.147233  2 At d -1       
   239     0.723213  -0.012736  1 H  s                142     0.543506  -0.009570  2 At d  1       
   140     0.009572   0.543505  2 At d -1             300    -0.534760   0.009417  2 At s          
   137    -0.390769   0.006880  2 At d  1             135    -0.006882  -0.390769  2 At d -1       

 Vector   57  Occ=0.000000D+00  E= 1.801864D-01
              MO Center= -7.8D-04,  8.8D-04, -3.7D-02, r^2= 4.2D+00
  Bfn.         Coefficient        Function           Bfn.         Coefficient        Function  
  ----     -------------------  ------------         ----     -------------------  ------------
   145    -1.364094   0.029033  2 At d -1             147    -0.029026  -1.364092  2 At d  1       
   150     0.988263  -0.021034  2 At d -1             152     0.021029   0.988261  2 At d  1       
   376    -0.572230   0.625065  2 At d -1             378     0.625067   0.572227  2 At d  1       
   381     0.414571  -0.452849  2 At d -1             383    -0.452850  -0.414569  2 At d  1       
   140     0.474022  -0.010089  2 At d -1             142     0.010087   0.474021  2 At d  1       

 Vector   58  Occ=0.000000D+00  E= 1.801864D-01
              MO Center=  8.3D-04, -8.3D-04, -1.4D-02, r^2= 1.7D+00
  Bfn.         Coefficient        Function           Bfn.         Coefficient        Function  
  ----     -------------------  ------------         ----     -------------------  ------------
   376     0.954930  -0.974528  2 At d -1             378    -0.974531  -0.954923  2 At d  1       
   381    -0.691830   0.706029  2 At d -1             383     0.706031   0.691826  2 At d  1       
   145    -0.847372  -0.010731  2 At d -1             147     0.010734  -0.847371  2 At d  1       
   150     0.613906   0.007774  2 At d -1             152    -0.007776   0.613905  2 At d  1       
   371    -0.331838   0.338648  2 At d -1             373     0.338649   0.331835  2 At d  1       

 Vector   59  Occ=0.000000D+00  E= 1.915578D-01
              MO Center=  2.9D-05,  6.7D-05, -1.5D-04, r^2= 5.5D+00
  Bfn.         Coefficient        Function           Bfn.         Coefficient        Function  
  ----     -------------------  ------------         ----     -------------------  ------------
   144     0.039565   1.647771  2 At d -2             148    -1.647763   0.039565  2 At d  2       
   149    -0.027417  -1.141829  2 At d -2             153     1.141824  -0.027417  2 At d  2       
   139    -0.013417  -0.558799  2 At d -2             143     0.558797  -0.013417  2 At d  2       
   134     0.009861   0.410699  2 At d -2             138    -0.410697   0.009861  2 At d  2       
   376     0.006402   0.266627  2 At d -1             378     0.266627  -0.006402  2 At d  1       

 Vector   60  Occ=0.000000D+00  E= 1.915578D-01
              MO Center=  2.6D-05, -6.8D-05, -1.7D-03, r^2= 1.5D-01
[...]
              MO Center=  1.2D-10,  1.2D-10,  1.1D-02, r^2= 2.8D-02
  Bfn.         Coefficient        Function           Bfn.         Coefficient        Function  
  ----     -------------------  ------------         ----     -------------------  ------------
    61   -10.297790  10.474422  2 At s                 62     9.297132  -9.456600  2 At s          
    60     8.134754  -8.274285  2 At s                 63    -7.275964   7.400765  2 At s          
    64     5.347490  -5.439212  2 At s                 65    -3.806837   3.872134  2 At s          
    59    -2.620383   2.665329  2 At s                 66     2.599360  -2.643945  2 At s          
    67    -1.597494   1.624895  2 At s                 68     0.801941  -0.815697  2 At s          

 Vector  452  Occ=0.000000D+00  E= 2.095708D+02
              MO Center= -2.9D-12,  9.5D-19,  1.1D-10, r^2= 3.7D-10
  Bfn.         Coefficient        Function           Bfn.         Coefficient        Function  
  ----     -------------------  ------------         ----     -------------------  ------------
   292    14.688703  -0.000000  2 At s                293   -13.261371   0.000000  2 At s          
   291   -11.603363   0.000000  2 At s                294    10.378390  -0.000000  2 At s          
   295    -7.627625   0.000000  2 At s                296     5.430049  -0.000000  2 At s          
   290     3.737698  -0.000000  2 At s                297    -3.707711   0.000000  2 At s          
   298     2.278655  -0.000000  2 At s                299    -1.143884   0.000000  2 At s          

 Vector  453  Occ=0.000000D+00  E= 2.665429D+02
              MO Center=  4.6D-09, -2.5D-09,  3.5D-03, r^2= 8.6D-03
  Bfn.         Coefficient        Function           Bfn.         Coefficient        Function  
  ----     -------------------  ------------         ----     -------------------  ------------
   306    -2.145964  -2.152785  2 At py               305    -2.152785   2.145964  2 At px         
    76    -2.129157   2.122410  2 At pz               309     2.110857   2.117566  2 At py         
   308     2.117566  -2.110857  2 At px                79     2.107087  -2.100411  2 At pz         
    82    -1.709495   1.704078  2 At pz               311    -1.697635   1.692256  2 At px         
   312    -1.692256  -1.697635  2 At py               303     1.308809   1.312969  2 At py         

 Vector  454  Occ=0.000000D+00  E= 2.665429D+02
              MO Center= -7.1D-09,  8.6D-13,  7.5D-03, r^2= 1.8D-02
  Bfn.         Coefficient        Function           Bfn.         Coefficient        Function  
  ----     -------------------  ------------         ----     -------------------  ------------
    75    -0.000166  -3.039678  2 At py                74     3.039678  -0.000166  2 At px         
   307    -3.006316   0.000164  2 At pz                78     0.000163   2.989950  2 At py         
    77    -2.989950   0.000163  2 At px               310     2.975154  -0.000163  2 At pz         
   313    -2.413763   0.000132  2 At pz                80     2.397018  -0.000131  2 At px         
    81    -0.000131  -2.397018  2 At py                72     0.000101   1.853880  2 At py         

 Vector  455  Occ=0.000000D+00  E= 2.789135D+02
              MO Center= -1.9D-15, -2.2D-15,  4.0D-15, r^2= 9.5D-15
  Bfn.         Coefficient        Function           Bfn.         Coefficient        Function  
  ----     -------------------  ------------         ----     -------------------  ------------
   306     2.586476  -2.594717  2 At py               305     2.594717   2.586476  2 At px         
   309    -2.534852   2.542929  2 At py               308    -2.542929  -2.534852  2 At px         
   312     2.028600  -2.035064  2 At py               311     2.035064   2.028600  2 At px         
   303    -1.586481   1.591536  2 At py               302    -1.591536  -1.586481  2 At px         
   315    -1.480473   1.485190  2 At py               314    -1.485190  -1.480473  2 At px         

 Vector  456  Occ=0.000000D+00  E= 2.789135D+02
              MO Center= -8.7D-13,  1.3D-12,  1.1D-02, r^2= 2.6D-02
  Bfn.         Coefficient        Function           Bfn.         Coefficient        Function  
  ----     -------------------  ------------         ----     -------------------  ------------
    75     3.650884  -0.305715  2 At py                74    -0.305715  -3.650884  2 At px         
    78    -3.578015   0.299613  2 At py                77     0.299613   3.578015  2 At px         
    81     2.863426  -0.239776  2 At py                80    -0.239776  -2.863426  2 At px         
    72    -2.239363   0.187518  2 At py                71     0.187518   2.239363  2 At px         
    84    -2.089729   0.174988  2 At py                83     0.174988   2.089729  2 At px         

 Vector  457  Occ=0.000000D+00  E= 2.790498D+02
              MO Center=  2.5D-09, -1.2D-09,  7.3D-03, r^2= 1.7D-02
  Bfn.         Coefficient        Function           Bfn.         Coefficient        Function  
  ----     -------------------  ------------         ----     -------------------  ------------
    76    -3.027216   3.017624  2 At pz                79     2.984697  -2.975240  2 At pz         
    82    -2.417181   2.409522  2 At pz                73     1.851314  -1.845448  2 At pz         
    85     1.800481  -1.794777  2 At pz               305     1.481741  -1.477046  2 At px         
   306     1.477046   1.481741  2 At py               308    -1.452122   1.447521  2 At px         
   309    -1.447521  -1.452122  2 At py                88    -1.276696   1.272650  2 At pz         

 Vector  458  Occ=0.000000D+00  E= 2.790498D+02
              MO Center= -3.7D-09,  2.3D-13,  3.6D-03, r^2= 8.5D-03
  Bfn.         Coefficient        Function           Bfn.         Coefficient        Function  
  ----     -------------------  ------------         ----     -------------------  ------------
   307     4.274353  -0.000056  2 At pz               310    -4.214317   0.000055  2 At pz         
   313     3.412999  -0.000045  2 At pz               304    -2.614009   0.000034  2 At pz         
   316    -2.542235   0.000033  2 At pz                74     2.092181  -0.000027  2 At px         
    75    -0.000027  -2.092181  2 At py                77    -2.050360   0.000027  2 At px         
    78     0.000027   2.050360  2 At py               319     1.802662  -0.000024  2 At pz         

 Vector  459  Occ=0.000000D+00  E= 7.953524D+02
              MO Center= -6.9D-13, -6.9D-13, -9.5D-01, r^2= 9.1D-01
  Bfn.         Coefficient        Function           Bfn.         Coefficient        Function  
  ----     -------------------  ------------         ----     -------------------  ------------
     1    -0.893657   0.894366  1 H  s                  2     0.716223  -0.716791  1 H  s          
     3    -0.481202   0.481584  1 H  s                  4     0.353708  -0.353988  1 H  s          
     5    -0.289576   0.289805  1 H  s                  6     0.230307  -0.230490  1 H  s          
    67    -0.110206   0.110294  2 At s                  8     0.083686  -0.083752  1 H  s          
    65     0.081809  -0.081874  2 At s                 91     0.068131  -0.068185  2 At pz         

 Vector  460  Occ=0.000000D+00  E= 7.953525D+02
              MO Center= -1.5D-20,  6.2D-24,  6.9D-15, r^2= 1.6D-13
  Bfn.         Coefficient        Function           Bfn.         Coefficient        Function  
  ----     -------------------  ------------         ----     -------------------  ------------
   232    -1.264323   0.000000  1 H  s                233     1.013294  -0.000000  1 H  s          
   234    -0.680792   0.000000  1 H  s                235     0.500417  -0.000000  1 H  s          
   236    -0.409684   0.000000  1 H  s                237     0.325832  -0.000000  1 H  s          
   298    -0.155917   0.000000  2 At s                239     0.118396  -0.000000  1 H  s          
   296     0.115742  -0.000000  2 At s                322     0.096390  -0.000000  2 At pz         

 Vector  461  Occ=0.000000D+00  E= 2.181809D+03
              MO Center=  1.0D-12,  1.0D-12,  1.9D-03, r^2= 2.2D-03
  Bfn.         Coefficient        Function           Bfn.         Coefficient        Function  
  ----     -------------------  ------------         ----     -------------------  ------------
    61    -2.983295   9.785566  2 At s                 60     2.655043  -8.708862  2 At s          
    62     2.637031  -8.649778  2 At s                 63    -2.077499   6.814448  2 At s          
    64     1.545895  -5.070723  2 At s                 59    -1.356058   4.448033  2 At s          
    65    -1.112898   3.650441  2 At s                 66     0.765989  -2.512537  2 At s          
    67    -0.472780   1.550775  2 At s                 68     0.238064  -0.780879  2 At s          

 Vector  462  Occ=0.000000D+00  E= 2.181809D+03
              MO Center= -7.4D-15, -3.4D-21,  7.2D-15, r^2= 2.5D-14
  Bfn.         Coefficient        Function           Bfn.         Coefficient        Function  
  ----     -------------------  ------------         ----     -------------------  ------------
   292    10.230218   0.000000  2 At s                291    -9.104588  -0.000000  2 At s          
   293    -9.042820  -0.000000  2 At s                294     7.124093   0.000000  2 At s          
   295    -5.301134  -0.000000  2 At s                290     4.650149   0.000000  2 At s          
   296     3.816315   0.000000  2 At s                297    -2.626705  -0.000000  2 At s          
   298     1.621241   0.000000  2 At s                299    -0.816362  -0.000000  2 At s          


   alpha - beta orbital overlaps 
   ----------------------------- 


   alpha      1      2      3      4      5      6      7      8      9     10
    beta     91     91     91     91     91     91     91     91     89     90
 overlap   0.000  0.001  0.003  0.011  0.031  0.070  0.083  0.029  0.000  0.000


   alpha     11     12     13     14     15     16     17     18     19     20
    beta     63     89     90     63     89     90     63     89     90     63
 overlap   0.000  0.000  0.000  0.004  0.002  0.002  0.004  0.006  0.006  0.014


   alpha     21     22     23     24     25     26     27     28     29     30
    beta    119     81     63     80    123    119    120     63    122    123
 overlap   0.000  0.000  0.000  0.000  0.000  0.000  0.000  0.000  0.000  0.000


   alpha     31     32     33     34     35     36     37     38     39     40
    beta    119     90     63     89    123    120    119     81     82     80
 overlap   0.000  0.001  0.006  0.001  0.000  0.000  0.000  0.000  0.000  0.000


   alpha     41     42     43     44     45     46     47     48     49     50
    beta    123    122    120    119     81     63     80    123    122     80
 overlap   0.000  0.000  0.000  0.000  0.000  0.002  0.000  0.000  0.000  0.000


   alpha     51     52     53     54     55     56     57     58     59     60
    beta    120    119     81     82     80    123    122    121     63     63
 overlap   0.000  0.000  0.000  0.000  0.000  0.000  0.000  0.000  0.048  0.402


   alpha     61     62     63     64     65     66     67     68     69     70
    beta     63     63     63     63     63     63     66     63     63     63
 overlap   0.542  2.420  3.899  0.265  0.818  1.481  0.161  0.353  0.132  0.034


   alpha     71     72     73     74     75     76     77     78     79     80
    beta     80     81     82     80     81     82     80     81     82     80
 overlap   0.028  0.028  0.026  0.153  0.153  0.140  0.230  0.230  0.224  0.895


   alpha     81     82     83     84     85     86     87     88     89     90
    beta     81     82     80     81     82     80     81     82     80     81
 overlap   0.895  0.833  0.273  0.273  0.247  0.164  0.164  0.187  0.251  0.251


   alpha     91     92     93     94     95     96     97     98     99    100
    beta     82     89     90     63     80     81     82     92     93     82
 overlap   0.182  0.153  0.153  0.080  0.124  0.124  0.064  0.012  0.012  0.016


   alpha    101    102    103    104    105    106    107    108    109    110
    beta     80     81     82    119    120    121    122    123    119    120
 overlap   0.007  0.007  0.006  0.001  0.001  0.001  0.001  0.001  0.022  0.022


   alpha    111    112    113    114    115    116    117    118    119    120
    beta    121    122    123    119    120    121    122    123    119    120
 overlap   0.022  0.022  0.022  0.002  0.002  0.002  0.002  0.002  0.212  0.211


   alpha    121    122    123    124    125    126    127    128    129    130
    beta    121    122    123    119    120    121    122    123    119    120
 overlap   0.213  0.211  0.212  0.181  0.181  0.181  0.181  0.181  0.111  0.111


   alpha    131    132    133    134    135    136    137    138    139    140
    beta    121    122    123    119    120     63    122    123    119    120
 overlap   0.112  0.111  0.111  0.015  0.014  0.025  0.014  0.015  0.008  0.007


   alpha    141    142    143    144    145    146    147    148    149    150
    beta     63    122    123    119    120     63    122    123    119    120
 overlap   0.035  0.007  0.008  0.003  0.003  0.006  0.003  0.003  0.001  0.001


   alpha    151    152    153    154    155    156    157    158    159    160
    beta     63    122    123    120    119     81     63     80    123    122
 overlap   0.003  0.001  0.001  0.000  0.000  0.000  0.001  0.000  0.000  0.000


   alpha    161    162    163    164    165    166    167    168    169    170
    beta     81    119     81     63     80    123     80     93    119     90
 overlap   0.000  0.000  0.000  0.002  0.000  0.000  0.000  0.000  0.000  0.001


   alpha    171    172    173    174    175    176    177    178    179    180
    beta     63     89    123     92     81    119     90     91     89    123
 overlap   0.005  0.001  0.000  0.000  0.000  0.000  0.002  0.005  0.002  0.000


   alpha    181    182    183    184    185    186    187    188    189    190
    beta     80     63    119     81     82     80    123     63     63    119
 overlap   0.000  0.000  0.000  0.001  0.007  0.001  0.000  0.000  0.000  0.000


   alpha    191    192    193    194    195    196    197    198    199    200
    beta     90     63     89    123     63     81    120    119    120     63
 overlap   0.002  0.010  0.002  0.000  0.000  0.000  0.000  0.000  0.000  0.001


   alpha    201    202    203    204    205    206    207    208    209    210
    beta    122    123    122     82    123    120    119    120     63    122
 overlap   0.000  0.000  0.000  0.000  0.000  0.000  0.000  0.000  0.004  0.000


   alpha    211    212    213    214    215    216    217    218    219    220
    beta    123    122    121     90    120    119    120     63    122    123
 overlap   0.000  0.000  0.000  0.000  0.000  0.000  0.000  0.008  0.000  0.000


   alpha    221    222    223    224    225    226    227    228    229    230
    beta    122    121     81    120    119     81     63     80    123    122
 overlap   0.000  0.000  0.000  0.000  0.000  0.000  0.006  0.000  0.000  0.000


   alpha    231
    beta    121
 overlap   0.000

     --------------------------
     Expectation value of S2:  
     --------------------------
      <S2> =      0.1478 (Exact =     0.0000)


     Multipole analysis of the density
     ---------------------------------

     L   x y z        total         alpha         beta         nuclear
     -   - - -        -----         -----         ----         -------
     0   0 0 0     -0.000000    -12.999995    -13.000005     26.000000

     1   1 0 0     -0.000001     -0.000000     -0.000000      0.000000
     1   0 1 0     -0.000000     -0.000000     -0.000000      0.000000
     1   0 0 1      0.136261      1.336233      1.336374     -2.536345

     2   2 0 0    -24.810204    -12.405093    -12.405112      0.000000
     2   1 1 0     -0.000000     -0.000000     -0.000000      0.000000
     2   1 0 1     -0.000000     -0.000000     -0.000000      0.000000
     2   0 2 0    -24.810204    -12.405093    -12.405112      0.000000
     2   0 1 1     -0.000000     -0.000000     -0.000000      0.000000
     2   0 0 2    -21.828552    -17.391816    -17.392180     12.955444


 Parallel integral file used    1279 records with       0 large values


 Task  times  cpu:       12.6s     wall:       20.4s


                                NWChem Input Module
                                -------------------


 Summary of allocated global arrays
-----------------------------------
  No active global arrays



                         GA Statistics for process    0
                         ------------------------------

       create   destroy   get      put      acc     scatter   gather  read&inc
calls: 5658     5658     7.59e+04 4.11e+04 2.40e+04    0        0     1150     
number of processes/call 3.19e+00 3.62e+00 1.21e+00 0.00e+00 0.00e+00
bytes total:             1.05e+09 6.45e+08 2.27e+08 0.00e+00 0.00e+00 9.20e+03
bytes remote:            8.87e+08 4.70e+08 1.54e+08 0.00e+00 0.00e+00 0.00e+00
Max memory consumed for GA by this process: 8211968 bytes

MA_summarize_allocated_blocks: starting scan ...
MA_summarize_allocated_blocks: scan completed: 0 heap blocks, 0 stack blocks
MA usage statistics:

	allocation statistics:
					      heap	     stack
					      ----	     -----
	current number of blocks	         0	         0
	maximum number of blocks	        42	        57
	current total bytes		         0	         0
	maximum total bytes		 364160240	  58458840
	maximum total K-bytes		    364161	     58459
	maximum total M-bytes		       365	        59


                                     CITATION
                                     --------
                Please cite the following reference when publishing
                           results obtained with NWChem:

                 M. Valiev, E.J. Bylaska, N. Govind, K. Kowalski,
              T.P. Straatsma, H.J.J. van Dam, D. Wang, J. Nieplocha,
                        E. Apra, T.L. Windus, W.A. de Jong
                 "NWChem: a comprehensive and scalable open-source
                  solution for large scale molecular simulations"
                      Comput. Phys. Commun. 181, 1477 (2010)
                           doi:10.1016/j.cpc.2010.04.018

                                      AUTHORS
                                      -------
          E. Apra, E. J. Bylaska, W. A. de Jong, N. Govind, K. Kowalski,
       T. P. Straatsma, M. Valiev, H. J. J. van Dam, D. Wang, T. L. Windus,
        J. Hammond, J. Autschbach, K. Bhaskaran-Nair, J. Brabec, K. Lopata,
    S. A. Fischer, S. Krishnamoorthy, M. Jacquelin, W. Ma, M. Klemm, O. Villa,
      Y. Chen, V. Anisimov, F. Aquino, S. Hirata, M. T. Hackler, V. Konjkov,
            D. Mejia-Rodriguez, T. Risthaus, M. Malagoli, A. Marenich,
   A. Otero-de-la-Roza, J. Mullin, P. Nichols, R. Peverati, J. Pittner, Y. Zhao,
        P.-D. Fan, A. Fonari, M. J. Williamson, R. J. Harrison, J. R. Rehr,
      M. Dupuis, D. Silverstein, D. M. A. Smith, J. Nieplocha, V. Tipparaju,
    M. Krishnan, B. E. Van Kuiken, A. Vazquez-Mayagoitia, L. Jensen, M. Swart,
      Q. Wu, T. Van Voorhis, A. A. Auer, M. Nooijen, L. D. Crosby, E. Brown,
      G. Cisneros, G. I. Fann, H. Fruchtl, J. Garza, K. Hirao, R. A. Kendall,
      J. A. Nichols, K. Tsemekhman, K. Wolinski, J. Anchell, D. E. Bernholdt,
      P. Borowski, T. Clark, D. Clerc, H. Dachsel, M. J. O. Deegan, K. Dyall,
    D. Elwood, E. Glendening, M. Gutowski, A. C. Hess, J. Jaffe, B. G. Johnson,
     J. Ju, R. Kobayashi, R. Kutteh, Z. Lin, R. Littlefield, X. Long, B. Meng,
      T. Nakajima, S. Niu, L. Pollack, M. Rosing, K. Glaesemann, G. Sandrone,
      M. Stave, H. Taylor, G. Thomas, J. H. van Lenthe, A. T. Wong, Z. Zhang.

 Total times  cpu:       65.3s     wall:      106.1s
