 Data for JOB [12565,1] offset 0 Total slots allocated 12

 ========================   JOB MAP   ========================

 Data for node: r03n57	Num slots: 12	Max slots: 0	Num procs: 12
 	Process OMPI jobid: [12565,1] App: 0 Process rank: 0 Bound: socket 0[core 0[hwt 0]]:[B/././././.][./././././.]
 	Process OMPI jobid: [12565,1] App: 0 Process rank: 1 Bound: socket 0[core 1[hwt 0]]:[./B/./././.][./././././.]
 	Process OMPI jobid: [12565,1] App: 0 Process rank: 2 Bound: socket 0[core 2[hwt 0]]:[././B/././.][./././././.]
 	Process OMPI jobid: [12565,1] App: 0 Process rank: 3 Bound: socket 0[core 3[hwt 0]]:[./././B/./.][./././././.]
 	Process OMPI jobid: [12565,1] App: 0 Process rank: 4 Bound: socket 0[core 4[hwt 0]]:[././././B/.][./././././.]
 	Process OMPI jobid: [12565,1] App: 0 Process rank: 5 Bound: socket 0[core 5[hwt 0]]:[./././././B][./././././.]
 	Process OMPI jobid: [12565,1] App: 0 Process rank: 6 Bound: socket 1[core 6[hwt 0]]:[./././././.][B/././././.]
 	Process OMPI jobid: [12565,1] App: 0 Process rank: 7 Bound: socket 1[core 7[hwt 0]]:[./././././.][./B/./././.]
 	Process OMPI jobid: [12565,1] App: 0 Process rank: 8 Bound: socket 1[core 8[hwt 0]]:[./././././.][././B/././.]
 	Process OMPI jobid: [12565,1] App: 0 Process rank: 9 Bound: socket 1[core 9[hwt 0]]:[./././././.][./././B/./.]
 	Process OMPI jobid: [12565,1] App: 0 Process rank: 10 Bound: socket 1[core 10[hwt 0]]:[./././././.][././././B/.]
 	Process OMPI jobid: [12565,1] App: 0 Process rank: 11 Bound: socket 1[core 11[hwt 0]]:[./././././.][./././././B]

 =============================================================
 argument  1 = nwcat.nw
                                         
                                         


              Northwest Computational Chemistry Package (NWChem) 6.8
              ------------------------------------------------------


                    Environmental Molecular Sciences Laboratory
                       Pacific Northwest National Laboratory
                                Richland, WA 99352

                              Copyright (c) 1994-2018
                       Pacific Northwest National Laboratory
                            Battelle Memorial Institute

             NWChem is an open-source computational chemistry package
                        distributed under the terms of the
                      Educational Community License (ECL) 2.0
             A copy of the license is included with this distribution
                              in the LICENSE.TXT file

                                  ACKNOWLEDGMENT
                                  --------------

            This software and its documentation were developed at the
            EMSL at Pacific Northwest National Laboratory, a multiprogram
            national laboratory, operated for the U.S. Department of Energy
            by Battelle under Contract Number DE-AC05-76RL01830. Support
            for this work was provided by the Department of Energy Office
            of Biological and Environmental Research, Office of Basic
            Energy Sciences, and the Office of Advanced Scientific Computing.


           Job information
           ---------------

    hostname        = r03n57.localdomain.hpc.udel.edu
    program         = nwchem
    date            = Mon Aug  2 15:46:31 2021

    compiled        = Mon_Jun_22_16:48:09_2020
    source          = /opt/shared/nwchem/6.8.1/src
    nwchem branch   = Development
    nwchem revision = N/A
    ga revision     = 5.6.5
    use scalapack   = F
    input           = nwcat.nw
    prefix          = nwcat.
    data base       = /work/akanane/users/kennet/GA/parallel/ga_at/nwcat.db
    status          = startup
    nproc           =       12
    time left       =     -1s



           Memory information
           ------------------

    heap     = 1048575998 doubles =   8000.0 Mbytes
    stack    = 1048575995 doubles =   8000.0 Mbytes
    global   = 2097152000 doubles =  16000.0 Mbytes (distinct from heap & stack)
    total    = 4194303993 doubles =  32000.0 Mbytes
    verify   = yes
    hardfail = no 


           Directory information
           ---------------------

  0 permanent = /work/akanane/users/kennet/GA/parallel/ga_at
  0 scratch   = /work/akanane/users/kennet/GA/parallel/ga_at/tmp1




                                NWChem Input Module
                                -------------------


  library name resolved from: environment
  library file name is: </opt/shared/nwchem/6.8.1/data/libraries/>
  
                      Basis "ao basis" -> "" (spherical)
                      -----
  At (Astatine)
  -------------
            Exponent  Coefficients 
       -------------- ---------------------------------------------------------
  1 S  3.24597221E+01  1.000000

  2 S  1.65767316E+01  1.000000

  3 S  8.46550780E+00  1.000000

  4 S  4.32321790E+00  1.000000

  5 S  2.20780760E+00  1.000000

  6 S  1.12749690E+00  1.000000

  7 S  5.75797100E-01  1.000000

  8 S  2.94051600E-01  1.000000

  9 S  1.50168100E-01  1.000000

 10 S  7.66888000E-02  1.000000

 11 S  3.91639000E-02  1.000000

 12 S  2.00005000E-02  1.000000

 13 P  1.65767316E+01  1.000000

 14 P  8.46550780E+00  1.000000

 15 P  4.32321790E+00  1.000000

 16 P  2.20780760E+00  1.000000

 17 P  1.12749690E+00  1.000000

 18 P  5.75797100E-01  1.000000

 19 P  2.94051600E-01  1.000000

 20 P  1.50168100E-01  1.000000

 21 P  7.66888000E-02  1.000000

 22 P  3.91639000E-02  1.000000

 23 P  2.00005000E-02  1.000000

 24 D  1.65767316E+01  1.000000

 25 D  8.46550780E+00  1.000000

 26 D  4.32321790E+00  1.000000

 27 D  2.20780760E+00  1.000000

 28 D  1.12749690E+00  1.000000

 29 D  5.75797100E-01  1.000000

 30 D  2.94051600E-01  1.000000

 31 D  1.50168100E-01  1.000000

 32 D  7.66888000E-02  1.000000

 33 D  3.91639000E-02  1.000000

 34 F  4.32321790E+00  1.000000

 35 F  2.20780760E+00  1.000000

 36 F  1.12749690E+00  1.000000

 37 F  5.75797100E-01  1.000000

 38 F  2.94051600E-01  1.000000

 39 F  1.50168100E-01  1.000000

 40 G  2.20780760E+00  1.000000

 41 G  1.12749690E+00  1.000000

 42 G  5.75797100E-01  1.000000

 43 G  2.94051600E-01  1.000000



 Summary of "ao basis" -> "" (spherical)
 ------------------------------------------------------------------------------
       Tag                 Description            Shells   Functions and Types
 ---------------- ------------------------------  ------  ---------------------
 At                      user specified             43      173   12s11p10d6f4g


  library name resolved from: environment
  library file name is: </opt/shared/nwchem/6.8.1/data/libraries/>
  
                 ECP       "ecp basis" -> "" (cartesian)
                -----
  At (Astatine) Replaces    60 electrons
  --------------------------------------
             Channel    R-exponent     Exponent     Coefficients
         ------------ ---------------------------------------------------------
  1 U L       Both         0.00      525.754846      -0.173059
  1 U L       Both         1.00     2395.715850      -2.276906
  1 U L       Both         1.00      278.392187      -3.857969
  1 U L       Both         1.00       61.458962     -36.770662
  1 U L       Both         1.00       44.129376      37.601009
  1 U L       Both         1.00       31.359815     -23.238699
  1 U L       Both         1.00       11.620573     -16.176532
  1 U L       Both         1.00        4.446625      -3.261971
  1 U L       Both         1.00        2.935632       0.180132
  1 U L       Both         1.00        1.910251      -0.146253
  1 U L       Both         1.00        0.178868      -0.000306
  1 U L       Both         1.00        0.018768      -0.000022
  1 U L       Both         1.00        0.009761      -0.000001

  2 U-s       Both         0.00       78.594234      10.173059
  2 U-s       Both         1.00       20.707609      53.132769
  2 U-s       Both         2.00       45.167107     915.704248
  2 U-s       Both         2.00       30.243749   -1411.543382
  2 U-s       Both         2.00       20.306371    1849.067583
  2 U-s       Both         2.00       13.560689   -1518.357864
  2 U-s       Both         2.00        8.557058    1106.328043
  2 U-s       Both         2.00        5.419636    -461.892244
  2 U-s       Both         2.00        3.516909     198.105995
  2 U-s       Both         2.00        2.287714     -81.896353
  2 U-s       Both         2.00        1.492833      32.227905
  2 U-s       Both         2.00        0.974359     -11.458592
  2 U-s       Both         2.00        0.633560       3.370887
  2 U-s       Both         2.00        0.410317      -0.726005
  2 U-s       Both         2.00        0.263860       0.084087

  3 U-p       Both         0.00       77.044856       9.173059
  3 U-p       Both         1.00      208.029432     -11.921411
  3 U-p       Both         1.00       28.036479      67.690912
  3 U-p       Both         2.00       39.868030     362.644345
  3 U-p       Both         2.00       26.002305    -582.208229
  3 U-p       Both         2.00       15.965542    1135.430155
  3 U-p       Both         2.00       11.089072   -1255.187511
  3 U-p       Both         2.00        8.084023     873.528658
  3 U-p       Both         2.00        5.150690    -147.543640
  3 U-p       Both         2.00        2.818771      20.737280
  3 U-p       Both         2.00        1.590819      -4.949674
  3 U-p       Both         2.00        0.878982       1.224799
  3 U-p       Both         2.00        0.479414      -0.318322
  3 U-p       Both         2.00        0.264399       0.075196
  3 U-p       Both         2.00        0.157424      -0.011770

  4 U-d       Both         0.00       30.117728       7.173059
  4 U-d       Both         1.00        9.540744     223.203571
  4 U-d       Both         1.00        5.932081    -532.676982
  4 U-d       Both         1.00        3.279986     364.117347
  4 U-d       Both         2.00        6.384402     470.098427
  4 U-d       Both         2.00        3.591978    -476.290215
  4 U-d       Both         2.00        1.790367       1.447964
  4 U-d       Both         2.00        0.921766      -0.463077
  4 U-d       Both         2.00        0.485962       0.163733
  4 U-d       Both         2.00        0.266420      -0.069600
  4 U-d       Both         2.00        0.150370       0.031881
  4 U-d       Both         2.00        0.090090      -0.013071
  4 U-d       Both         2.00        0.051240       0.003831
  4 U-d       Both         2.00        0.029281      -0.000895
  4 U-d       Both         2.00        0.016722       0.000119

  5 U-f       Both         0.00        0.891112       4.173059
  5 U-f       Both         1.00       18.356496      62.551914
  5 U-f       Both         2.00    32873.554569    1035.415119
  5 U-f       Both         2.00     3063.446789     192.725071
  5 U-f       Both         2.00       31.894642    -183.984679
  5 U-f       Both         2.00        4.214026      69.570454
  5 U-f       Both         2.00        1.887936    -131.986631
  5 U-f       Both         2.00        1.332761     223.444177
  5 U-f       Both         2.00        0.873304    -167.865396
  5 U-f       Both         2.00        0.632167      71.630825
  5 U-f       Both         2.00        0.438045     -11.215886
  5 U-f       Both         2.00        0.261926       0.470906
  5 U-f       Both         2.00        0.174510       0.000847

  library name resolved from: environment
  library file name is: </opt/shared/nwchem/6.8.1/data/libraries/>
  

 **** WARNING Zero Coefficient **** on atom "              At"
 angular momentum value: 1  standard basis set name: "user specified"
 input line that generated warning:
   176: 0       7.704485637704510E+01           0.000000000000000E+00
  

 **** WARNING Zero Coefficient **** on atom "              At"
 angular momentum value: 2  standard basis set name: "user specified"
 input line that generated warning:
   192: 0       3.011772828438610E+01           0.000000000000000E+00
  

 **** WARNING Zero Coefficient **** on atom "              At"
 angular momentum value: 3  standard basis set name: "user specified"
 input line that generated warning:
   208: 0       8.911119625038520E-01           0.000000000000000E+00
  

 **** WARNING Zero Coefficient **** on atom "              At"
 angular momentum value: 4  standard basis set name: "user specified"
 input line that generated warning:
   222: 0       5.257548462769590E+02           0.000000000000000E+00
  
             SO Potential "so potential" -> ""
                      -----
  At (Astatine)
  -------------
          R-exponent    Exponent     Coefficients 
         ------------ ------------------------------------------------------------
  1 U-p      1.00      208.029432       2.561177
  1 U-p      1.00       28.036479      -1.650544
  1 U-p      2.00       39.868030      77.307362
  1 U-p      2.00       26.002305    -118.585980
  1 U-p      2.00       15.965542     138.579485
  1 U-p      2.00       11.089072     -52.715330
  1 U-p      2.00        8.084023     -58.916702
  1 U-p      2.00        5.150690      62.873440
  1 U-p      2.00        2.818771     -15.889430
  1 U-p      2.00        1.590819       4.843922
  1 U-p      2.00        0.878982      -1.405982
  1 U-p      2.00        0.479414       0.390801
  1 U-p      2.00        0.264399      -0.095951
  1 U-p      2.00        0.157424       0.015456

  2 U-d      1.00        9.540744       1.612834
  2 U-d      1.00        5.932081      -1.350383
  2 U-d      1.00        3.279986      -0.287663
  2 U-d      2.00        6.384402      -1.664264
  2 U-d      2.00        3.591978       4.036069
  2 U-d      2.00        1.790367      -0.890782
  2 U-d      2.00        0.921766       0.301059
  2 U-d      2.00        0.485962      -0.123316
  2 U-d      2.00        0.266420       0.057045
  2 U-d      2.00        0.150370      -0.027051
  2 U-d      2.00        0.090090       0.011366
  2 U-d      2.00        0.051240      -0.003367
  2 U-d      2.00        0.029281       0.000795
  2 U-d      2.00        0.016722      -0.000104

  3 U-f      1.00       18.356496      -0.000643
  3 U-f      2.00    32873.554569       0.834481
  3 U-f      2.00     3063.446789       0.273486
  3 U-f      2.00       31.894642       0.160633
  3 U-f      2.00        4.214026      -0.068824
  3 U-f      2.00        1.887936       0.022494
  3 U-f      2.00        1.332761      -0.174753
  3 U-f      2.00        0.873304       0.160803
  3 U-f      2.00        0.632167       0.036072
  3 U-f      2.00        0.438045      -0.065269
  3 U-f      2.00        0.261926       0.016437
  3 U-f      2.00        0.174510      -0.002626

  4 U-g      1.00     2395.715850      -1.527919
  4 U-g      1.00      278.392187      -3.033005
  4 U-g      1.00       61.458962       2.574144
  4 U-g      1.00       44.129376      -2.630667
  4 U-g      1.00       31.359815       1.110494
  4 U-g      1.00       11.620573      -0.051219
  4 U-g      1.00        4.446625       0.042132
  4 U-g      1.00        2.935632      -0.036158
  4 U-g      1.00        1.910251       0.008870
  4 U-g      1.00        0.178868       0.000099
  4 U-g      1.00        0.018768       0.000004
  4 U-g      1.00        0.009761      -0.000000

                                       At2+
                                       ----

 Scaling coordinates for geometry "geometry" by  1.889725989
 (inverse scale =  0.529177249)



                             Geometry "geometry" -> ""
                             -------------------------

 Output coordinates in angstroms (scale by  1.889725989 to convert to a.u.)

  No.       Tag          Charge          X              Y              Z
 ---- ---------------- ---------- -------------- -------------- --------------
    1 At                  85.0000     0.00000000     0.00000000     0.00000000

      Atomic Mass 
      ----------- 

      At               210.987500


 Effective nuclear repulsion energy (a.u.)       0.0000000000

            Nuclear Dipole moment (a.u.) 
            ----------------------------
        X                 Y               Z
 ---------------- ---------------- ----------------
     0.0000000000     0.0000000000     0.0000000000


            XYZ format geometry
            -------------------
     1
 geometry
 At                    0.00000000     0.00000000     0.00000000


                                 NWChem DFT Module
                                 -----------------


                                       At2+




 Summary of "ao basis" -> "ao basis" (spherical)
 ------------------------------------------------------------------------------
       Tag                 Description            Shells   Functions and Types
 ---------------- ------------------------------  ------  ---------------------
 At                      user specified             43      173   12s11p10d6f4g


  Caching 1-el integrals 

            General Information
            -------------------
          SCF calculation type: DFT
          Wavefunction type:  spin polarized.
          No. of atoms     :     1
          No. of electrons :    23
           Alpha electrons :    13
            Beta electrons :    10
          Charge           :     2
          Spin multiplicity:     4
          Use of symmetry is: off; symmetry adaption is: off
          Maximum number of iterations: 100
          AO basis - number of functions:   173
                     number of shells:    43
          Convergence on energy requested:  1.00D-06
          Convergence on density requested:  5.00D-06
          Convergence on gradient requested:  5.00D-06

              XC Information
              --------------
                         PBE0 Method XC Functional
                     Hartree-Fock (Exact) Exchange  0.250          
          PerdewBurkeErnzerhof Exchange Functional  0.750          
            Perdew 1991 LDA Correlation Functional  1.000 local    
           PerdewBurkeErnz. Correlation Functional  1.000 non-local

             Grid Information
             ----------------
          Grid used for XC integration:  xfine     
          Radial quadrature: Mura-Knowles        
          Angular quadrature: Lebedev. 
          Tag              B.-S. Rad. Rad. Pts. Rad. Cut. Ang. Pts.
          ---              ---------- --------- --------- ---------
          At                  1.90      205          13.0      1454
          Grid pruning is: on 
          Number of quadrature shells:   205
          Spatial weights used:  Erf1

          Convergence Information
          -----------------------
          Convergence aids based upon iterative change in 
          total energy or number of iterations. 
          Levelshifting, if invoked, occurs when the 
          HOMO/LUMO gap drops below (HL_TOL):  1.00D-02
          DIIS, if invoked, will attempt to extrapolate 
          using up to (NFOCK): 10 stored Fock matrices.

                    Damping( 0%)  Levelshifting(0.5)       DIIS
                  --------------- ------------------- ---------------
          dE  on:    start            ASAP                start   
          dE off:    2 iters        100 iters           100 iters 


      Screening Tolerance Information
      -------------------------------
          Density screening/tol_rho:  1.00D-10
          AO Gaussian exp screening on grid/accAOfunc:  14
          CD Gaussian exp screening on grid/accCDfunc:  20
          XC Gaussian exp screening on grid/accXCfunc:  20
          Schwarz screening/accCoul:  1.00D-10

 Performing spin-orbit DFT (SO-DFT) calculations
 -----------------------------------------------


      Superposition of Atomic Density Guess
      -------------------------------------

 Sum of atomic energies:        -302.65447170

 Renormalizing density from      25.00 to     23

      Non-variational initial energy
      ------------------------------

 Total energy =    -254.715880
 1-e energy   =    -418.022671
 2-e energy   =     163.306791
 HOMO         =      -1.160715
 LUMO         =      -1.160715

   Time prior to 1st pass:      4.8

 Integral file          = /work/akanane/users/kennet/GA/parallel/ga_at/tmp1/nwcat.aoints.00
 Record size in doubles =    65536    No. of integs per rec  =    43688
 Max. records in memory =      293    Max. records in file   =  1463122
 No. of bits per label  =        8    No. of bits per value  =       64


 #quartets = 4.479D+05 #integrals = 1.147D+07 #direct =  0.0% #cached =100.0%


File balance: exchanges=     5  moved=    44  time=   0.0


 Grid_pts file          = /work/akanane/users/kennet/GA/parallel/ga_at/tmp1/nwcat.gridpts.00
 Record size in doubles =  12289        No. of grid_pts per rec  =   3070
 Max. records in memory =     10        Max. recs in file   =   7802873


           Memory utilization after 1st SCF pass: 
           Heap Space remaining (MW):     1029.22          1029217998
          Stack Space remaining (MW):     1048.33          1048331932

   convergence    iter        energy       DeltaE   RMS-Dens  Diis-err    time
 ---------------- ----- ----------------- --------- --------- ---------  ------
 d= 0,ls=0.0,diis     1   -261.4264260718 -2.61D+02  8.35D-03  9.49D+00    11.1
                                                     6.11D-03  9.49D+00
 d= 0,ls=0.0,diis     2   -261.9401292746 -5.14D-01  3.93D-03  1.09D+00    13.3
                                                     4.01D-03  1.09D+00
 d= 0,ls=0.0,diis     3   -262.0340735787 -9.39D-02  1.11D-03  1.23D-01    15.7
                                                     1.09D-03  1.23D-01
 d= 0,ls=0.0,diis     4   -262.0484841584 -1.44D-02  5.18D-04  7.84D-04    17.5
                                                     3.93D-04  7.84D-04
 d= 0,ls=0.0,diis     5   -262.0510522522 -2.57D-03  3.37D-04  1.23D-04    19.8
                                                     2.63D-04  1.23D-04
 d= 0,ls=0.0,diis     6   -262.0515297111 -4.77D-04  3.05D-05  2.19D-06    21.7
                                                     2.88D-05  2.19D-06
 d= 0,ls=0.0,diis     7   -262.0515341829 -4.47D-06  3.24D-06  5.21D-08    23.9
                                                     3.41D-06  5.21D-08
 d= 0,ls=0.0,diis     8   -262.0515342650 -8.21D-08  7.71D-07  7.48D-09    26.2
                                                     5.44D-07  7.48D-09


      Total SO-DFT energy =     -262.051534268760
      One electron energy =     -438.578386858688
           Coulomb energy =      195.366386222978
    Exchange-Corr. energy =      -18.839533633050
 Nuclear repulsion energy =        0.000000000000

 Numeric. integr. density =       22.999999999999

     Total iterative time =     23.2s



                       DFT Final Molecular Orbital Analysis
                       ------------------------------------

 Vector    1  Occ=1.000000D+00  E=-7.869885D+00
              MO Center= -3.8D-17, -1.8D-17, -1.1D-16, r^2= 1.2D-02
  Bfn.         Coefficient        Function           Bfn.         Coefficient        Function  
  ----     -------------------  ------------         ----     -------------------  ------------
     5     0.416564   1.629343  1 At s                  4    -0.278614  -1.089768  1 At s          
     7     0.111670   0.436785  1 At s                  8    -0.073519  -0.287561  1 At s          
     3    -0.053067  -0.207565  1 At s                  9     0.049375   0.193126  1 At s          
     2     0.044242   0.173049  1 At s                 10    -0.028753  -0.112465  1 At s          
    11     0.012858   0.050294  1 At s          

 Vector    2  Occ=1.000000D+00  E=-7.861617D+00
              MO Center= -1.5D-20, -2.5D-22, -1.2D-20, r^2= 8.6D-11
  Bfn.         Coefficient        Function           Bfn.         Coefficient        Function  
  ----     -------------------  ------------         ----     -------------------  ------------
   178     1.675352   0.008897  1 At s                177    -1.123472  -0.005966  1 At s          
   180     0.446862   0.002373  1 At s                181    -0.294828  -0.001566  1 At s          
   176    -0.213265  -0.001133  1 At s                182     0.198123   0.001052  1 At s          
   175     0.178116   0.000946  1 At s                183    -0.115432  -0.000613  1 At s          
   184     0.051641   0.000274  1 At s          

 Vector    3  Occ=1.000000D+00  E=-6.035938D+00
              MO Center=  8.5D-17,  5.5D-19,  8.0D-17, r^2= 7.5D-02
  Bfn.         Coefficient        Function           Bfn.         Coefficient        Function  
  ----     -------------------  ------------         ----     -------------------  ------------
    22    -0.516709  -0.000222  1 At px                23    -0.000222   0.516709  1 At py         
   197     0.515659   0.000222  1 At pz                16     0.143110   0.000062  1 At px         
    17     0.000062  -0.143110  1 At py               191    -0.142740  -0.000061  1 At pz         
   200     0.106294   0.000046  1 At pz                25    -0.103674  -0.000045  1 At px         
    26    -0.000045   0.103674  1 At py                29    -0.000043   0.100014  1 At py         

 Vector    4  Occ=1.000000D+00  E=-6.033276D+00
              MO Center= -1.3D-17,  2.5D-18,  6.8D-17, r^2= 2.0D-02
  Bfn.         Coefficient        Function           Bfn.         Coefficient        Function  
  ----     -------------------  ------------         ----     -------------------  ------------
    24     0.264557  -0.447889  1 At pz               195     0.261329  -0.442424  1 At px         
   196     0.442424   0.261329  1 At py                18    -0.072998   0.123583  1 At pz         
   190    -0.122662  -0.072454  1 At py               189    -0.072454   0.122662  1 At px         
   199     0.090881   0.053681  1 At py               198     0.053681  -0.090881  1 At px         
    27     0.053639  -0.090809  1 At pz                30     0.051316  -0.086877  1 At pz         

 Vector    5  Occ=1.000000D+00  E=-4.927045D+00
              MO Center=  2.3D-17, -5.5D-17, -1.5D-16, r^2= 1.4D-01
  Bfn.         Coefficient        Function           Bfn.         Coefficient        Function  
  ----     -------------------  ------------         ----     -------------------  ------------
    22     0.381925  -0.475476  1 At px                23     0.475476   0.381925  1 At py         
    19    -0.147359   0.183454  1 At px                20    -0.183454  -0.147359  1 At py         
    25     0.130922  -0.162992  1 At px                26     0.162992   0.130922  1 At py         
    28     0.104211  -0.129738  1 At px                29     0.129738   0.104211  1 At py         
    16    -0.043519   0.054179  1 At px                17    -0.054179  -0.043519  1 At py         

 Vector    6  Occ=1.000000D+00  E=-4.926235D+00
              MO Center= -1.7D-16, -1.3D-17,  1.0D-16, r^2= 4.7D-02
  Bfn.         Coefficient        Function           Bfn.         Coefficient        Function  
  ----     -------------------  ------------         ----     -------------------  ------------
    24    -0.356802   0.601274  1 At pz               195     0.180287  -0.303815  1 At px         
   196     0.303815   0.180287  1 At py                21     0.138423  -0.233268  1 At pz         
    27    -0.123626   0.208332  1 At pz                30    -0.098020   0.165181  1 At pz         
   192    -0.069498   0.117116  1 At px               193    -0.117116  -0.069498  1 At py         
   198     0.063303  -0.106677  1 At px               199     0.106677   0.063303  1 At py         

 Vector    7  Occ=1.000000D+00  E=-4.925701D+00
              MO Center=  6.1D-17, -4.3D-18, -7.7D-17, r^2= 4.6D-02
  Bfn.         Coefficient        Function           Bfn.         Coefficient        Function  
  ----     -------------------  ------------         ----     -------------------  ------------
   197    -0.700360  -0.000276  1 At pz                23    -0.000139   0.351824  1 At py         
    22    -0.351824  -0.000139  1 At px               194     0.271894   0.000107  1 At pz         
   200    -0.246689  -0.000097  1 At pz               203    -0.189415  -0.000075  1 At pz         
    20     0.000054  -0.135732  1 At py                19     0.135732   0.000054  1 At px         
    26    -0.000048   0.120801  1 At py                25    -0.120801  -0.000048  1 At px         

 Vector    8  Occ=1.000000D+00  E=-4.918593D+00
              MO Center= -4.8D-21, -5.2D-21, -5.4D-22, r^2= 6.7D-10
  Bfn.         Coefficient        Function           Bfn.         Coefficient        Function  
  ----     -------------------  ------------         ----     -------------------  ------------
   196    -0.521789   0.310634  1 At py               195    -0.310634  -0.521789  1 At px         
   193     0.202427  -0.120510  1 At py               192     0.120510   0.202427  1 At px         
   199    -0.183740   0.109385  1 At py               198    -0.109385  -0.183740  1 At px         
   202    -0.140266   0.083504  1 At py               201    -0.083504  -0.140266  1 At px         
   190     0.059249  -0.035272  1 At py               189     0.035272   0.059249  1 At px         

 Vector    9  Occ=1.000000D+00  E=-2.326063D+00
              MO Center=  3.3D-17, -3.1D-17,  1.4D-16, r^2= 1.2D-01
  Bfn.         Coefficient        Function           Bfn.         Coefficient        Function  
  ----     -------------------  ------------         ----     -------------------  ------------
   236     0.293215  -0.000206  1 At d  0              64     0.263764  -0.000185  1 At d  1       
    62     0.000185   0.263764  1 At d -1             241     0.239806  -0.000168  1 At d  0       
    69     0.213535  -0.000150  1 At d  1              67     0.000150   0.213535  1 At d -1       
   246     0.140456  -0.000098  1 At d  0              74     0.130814  -0.000092  1 At d  1       
    72     0.000092   0.130814  1 At d -1             226    -0.033716   0.000024  1 At d  0       

 Vector   10  Occ=1.000000D+00  E=-2.324575D+00
              MO Center=  2.3D-19, -3.1D-17, -3.5D-17, r^2= 9.9D-02
  Bfn.         Coefficient        Function           Bfn.         Coefficient        Function  
  ----     -------------------  ------------         ----     -------------------  ------------
    63    -0.237126   0.202964  1 At d  0              68    -0.192596   0.164849  1 At d  0       
   237     0.192051  -0.164382  1 At d  1             235    -0.164382  -0.192051  1 At d -1       
   242     0.156967  -0.134353  1 At d  1             240    -0.134353  -0.156967  1 At d -1       
    73    -0.118169   0.101144  1 At d  0             245    -0.078520  -0.091736  1 At d -1       
   247     0.091736  -0.078520  1 At d  1              53     0.027074  -0.023173  1 At d  0       

 Vector   11  Occ=1.000000D+00  E=-2.322428D+00
              MO Center= -8.1D-17, -1.8D-16,  2.8D-18, r^2= 1.6D-01
  Bfn.         Coefficient        Function           Bfn.         Coefficient        Function  
  ----     -------------------  ------------         ----     -------------------  ------------
    61     0.181693  -0.240698  1 At d -2              65     0.240698   0.181693  1 At d  2       
    70     0.193993   0.146438  1 At d  2              66     0.146438  -0.193993  1 At d -2       
    71     0.089794  -0.118954  1 At d -2              75     0.118954   0.089794  1 At d  2       
   237     0.117950   0.089036  1 At d  1             235    -0.089036   0.117950  1 At d -1       
   242     0.096530   0.072867  1 At d  1             240    -0.072867   0.096530  1 At d -1       

 Vector   12  Occ=1.000000D+00  E=-2.317021D+00
              MO Center=  1.0D-16, -7.8D-18,  1.5D-16, r^2= 4.8D-02
  Bfn.         Coefficient        Function           Bfn.         Coefficient        Function  
  ----     -------------------  ------------         ----     -------------------  ------------
   234    -0.013551  -0.293294  1 At d -2             238    -0.293294   0.013551  1 At d  2       
   243    -0.239716   0.011075  1 At d  2             239    -0.011075  -0.239716  1 At d -2       
    62    -0.007556  -0.163542  1 At d -1              64     0.163542  -0.007556  1 At d  1       
   248    -0.139255   0.006434  1 At d  2             244    -0.006434  -0.139255  1 At d -2       
    67    -0.006150  -0.133119  1 At d -1              69     0.133119  -0.006150  1 At d  1       

 Vector   13  Occ=1.000000D+00  E=-2.179502D+00
              MO Center= -4.3D-17, -1.1D-17, -1.2D-16, r^2= 1.3D-01
  Bfn.         Coefficient        Function           Bfn.         Coefficient        Function  
  ----     -------------------  ------------         ----     -------------------  ------------
    63     0.253529  -0.222132  1 At d  0              68     0.225451  -0.197530  1 At d  0       
   237     0.158829  -0.139160  1 At d  1             235    -0.139160  -0.158829  1 At d -1       
    73     0.144082  -0.126239  1 At d  0             242     0.142118  -0.124518  1 At d  1       
   240    -0.124518  -0.142118  1 At d -1             247     0.086421  -0.075719  1 At d  1       
   245    -0.075719  -0.086421  1 At d -1              53    -0.023902   0.020942  1 At d  0       

 Vector   14  Occ=1.000000D+00  E=-2.179314D+00
              MO Center=  1.6D-16, -1.7D-18,  9.8D-18, r^2= 1.6D-01
  Bfn.         Coefficient        Function           Bfn.         Coefficient        Function  
  ----     -------------------  ------------         ----     -------------------  ------------
    62     0.011926   0.276346  1 At d -1              64    -0.276346   0.011926  1 At d  1       
    67     0.010580   0.245167  1 At d -1              69    -0.245167   0.010580  1 At d  1       
   238    -0.157547   0.006799  1 At d  2             234    -0.006799  -0.157547  1 At d -2       
    72     0.006775   0.156991  1 At d -1              74    -0.156991   0.006775  1 At d  1       
   243    -0.140295   0.006054  1 At d  2             239    -0.006054  -0.140295  1 At d -2       

 Vector   15  Occ=1.000000D+00  E=-2.179027D+00
              MO Center= -6.3D-17, -1.3D-16,  1.8D-17, r^2= 2.1D-01
  Bfn.         Coefficient        Function           Bfn.         Coefficient        Function  
  ----     -------------------  ------------         ----     -------------------  ------------
    65     0.130676  -0.290155  1 At d  2              61     0.290155   0.130676  1 At d -2       
    70     0.115149  -0.255678  1 At d  2              66     0.255678   0.115149  1 At d -2       
    75     0.073952  -0.164204  1 At d  2              71     0.164204   0.073952  1 At d -2       
    55    -0.012396   0.027525  1 At d  2              51    -0.027525  -0.012396  1 At d -2       

 Vector   16  Occ=1.000000D+00  E=-2.178210D+00
              MO Center= -1.5D-17,  9.8D-18,  4.8D-17, r^2= 8.0D-02
  Bfn.         Coefficient        Function           Bfn.         Coefficient        Function  
  ----     -------------------  ------------         ----     -------------------  ------------
   236    -0.355352   0.000909  1 At d  0             241    -0.318781   0.000816  1 At d  0       
    64     0.195814  -0.000501  1 At d  1              62     0.000501   0.195814  1 At d -1       
   246    -0.194669   0.000498  1 At d  0              69     0.173847  -0.000445  1 At d  1       
    67     0.000445   0.173847  1 At d -1              74     0.111122  -0.000284  1 At d  1       
    72     0.000284   0.111122  1 At d -1             226     0.033755  -0.000086  1 At d  0       

 Vector   17  Occ=1.000000D+00  E=-2.174184D+00
              MO Center=  5.5D-17,  1.1D-17, -1.1D-17, r^2= 4.0D-02
  Bfn.         Coefficient        Function           Bfn.         Coefficient        Function  
  ----     -------------------  ------------         ----     -------------------  ------------
   235    -0.191937   0.212854  1 At d -1             237     0.212854   0.191937  1 At d  1       
   240    -0.172366   0.191149  1 At d -1             242     0.191149   0.172366  1 At d  1       
   245    -0.105124   0.116580  1 At d -1             247     0.116580   0.105124  1 At d  1       
    61    -0.093620   0.103822  1 At d -2              65    -0.103822  -0.093620  1 At d  2       
    66    -0.082759   0.091777  1 At d -2              70    -0.091777  -0.082759  1 At d  2       

 Vector   18  Occ=1.000000D+00  E=-2.166598D+00
              MO Center= -1.3D-21, -6.6D-22, -3.4D-22, r^2= 2.2D-09
  Bfn.         Coefficient        Function           Bfn.         Coefficient        Function  
  ----     -------------------  ------------         ----     -------------------  ------------
   234    -0.013694   0.319137  1 At d -2             238    -0.319137  -0.013694  1 At d  2       
   239    -0.012300   0.286645  1 At d -2             243    -0.286645  -0.012300  1 At d  2       
   244    -0.007459   0.173818  1 At d -2             248    -0.173818  -0.007459  1 At d  2       
   224     0.001294  -0.030150  1 At d -2             228     0.030150   0.001294  1 At d  2       

 Vector   19  Occ=1.000000D+00  E=-1.437769D+00
              MO Center=  2.9D-16, -4.5D-16, -8.7D-17, r^2= 1.1D+00
  Bfn.         Coefficient        Function           Bfn.         Coefficient        Function  
  ----     -------------------  ------------         ----     -------------------  ------------
     8    -1.064207  -0.189971  1 At s                  5     1.038094   0.185309  1 At s          
     4    -0.506353  -0.090389  1 At s                  6     0.301300   0.053785  1 At s          
     3    -0.188833  -0.033708  1 At s                  9    -0.166305  -0.029687  1 At s          
    10    -0.111819  -0.019961  1 At s                  2     0.103259   0.018433  1 At s          
    11     0.046559   0.008311  1 At s                  7     0.039571   0.007064  1 At s          

 Vector   20  Occ=1.000000D+00  E=-1.373038D+00
              MO Center=  4.1D-19,  7.7D-20,  1.0D-19, r^2= 1.0D-06
  Bfn.         Coefficient        Function           Bfn.         Coefficient        Function  
  ----     -------------------  ------------         ----     -------------------  ------------
   178     1.079393   0.000216  1 At s                181    -1.023232  -0.000205  1 At s          
   177    -0.526983  -0.000106  1 At s                179     0.333619   0.000067  1 At s          
   176    -0.194669  -0.000039  1 At s                182    -0.183928  -0.000037  1 At s          
   175     0.106542   0.000021  1 At s                183    -0.104466  -0.000021  1 At s          
   180    -0.043521  -0.000009  1 At s                184     0.043351   0.000009  1 At s          

 Vector   21  Occ=1.000000D+00  E=-9.913110D-01
              MO Center= -4.4D-16,  1.6D-16, -1.2D-16, r^2= 6.0D-01
  Bfn.         Coefficient        Function           Bfn.         Coefficient        Function  
  ----     -------------------  ------------         ----     -------------------  ------------
    31    -0.363160   0.192586  1 At px                32     0.192586   0.363160  1 At py         
   206     0.255938  -0.135726  1 At pz                22     0.251961  -0.133616  1 At px         
    23    -0.133616  -0.251961  1 At py               197    -0.195377   0.103610  1 At pz         
    35     0.082377   0.155339  1 At py                34    -0.155339   0.082377  1 At px         
   209     0.113480  -0.060179  1 At pz               203     0.101687  -0.053925  1 At pz         

 Vector   22  Occ=1.000000D+00  E=-9.726543D-01
              MO Center= -6.3D-17, -5.1D-17, -8.1D-17, r^2= 2.6D-01
  Bfn.         Coefficient        Function           Bfn.         Coefficient        Function  
  ----     -------------------  ------------         ----     -------------------  ------------
    33     0.264879  -0.400357  1 At pz                24    -0.184247   0.278485  1 At pz         
   204     0.161895  -0.244700  1 At px               205     0.244700   0.161895  1 At py         
   195    -0.124880   0.188752  1 At px               196    -0.188752  -0.124880  1 At py         
    36     0.120448  -0.182054  1 At pz               208     0.112582   0.074485  1 At py         
   207     0.074485  -0.112582  1 At px               202     0.095816   0.063392  1 At py         

 Vector   23  Occ=1.000000D+00  E=-8.630625D-01
              MO Center= -2.3D-17, -8.3D-17, -1.9D-16, r^2= 9.3D-01
  Bfn.         Coefficient        Function           Bfn.         Coefficient        Function  
  ----     -------------------  ------------         ----     -------------------  ------------
    31     0.438088  -0.090518  1 At px                32     0.090518   0.438088  1 At py         
    22    -0.292703   0.060479  1 At px                23    -0.060479  -0.292703  1 At py         
    35     0.055468   0.268453  1 At py                34     0.268453  -0.055468  1 At px         
    26    -0.028366  -0.137284  1 At py                25    -0.137284   0.028366  1 At px         
    37     0.089312  -0.018454  1 At px                38     0.018454   0.089312  1 At py         

 Vector   24  Occ=0.000000D+00  E=-7.560907D-01
              MO Center=  5.4D-16, -2.5D-16, -1.4D-16, r^2= 6.0D-01
  Bfn.         Coefficient        Function           Bfn.         Coefficient        Function  
  ----     -------------------  ------------         ----     -------------------  ------------
    33     0.323182  -0.237389  1 At pz               204    -0.236266   0.173546  1 At px         
   205    -0.173546  -0.236266  1 At py                36     0.228989  -0.168201  1 At pz         
    24    -0.220430   0.161914  1 At pz               195     0.179880  -0.132129  1 At px         
   196     0.132129   0.179880  1 At py               208    -0.121831  -0.165860  1 At py         
   207    -0.165860   0.121831  1 At px                27    -0.115257   0.084661  1 At pz         

 Vector   25  Occ=0.000000D+00  E=-7.513779D-01
              MO Center=  3.5D-16,  8.5D-17,  4.0D-17, r^2= 2.2D-01
  Bfn.         Coefficient        Function           Bfn.         Coefficient        Function  
  ----     -------------------  ------------         ----     -------------------  ------------
   206     0.497268  -0.028093  1 At pz               197    -0.371183   0.020970  1 At pz         
   209     0.362215  -0.020463  1 At pz                31     0.196898  -0.011124  1 At px         
    32    -0.011124  -0.196898  1 At py               200    -0.170346   0.009624  1 At pz         
    35    -0.007912  -0.140040  1 At py                34     0.140040  -0.007912  1 At px         
    23     0.007495   0.132664  1 At py                22    -0.132664   0.007495  1 At px         

 Vector   26  Occ=0.000000D+00  E=-7.253373D-01
              MO Center= -2.7D-19,  5.7D-20,  2.1D-20, r^2= 8.4D-07
  Bfn.         Coefficient        Function           Bfn.         Coefficient        Function  
  ----     -------------------  ------------         ----     -------------------  ------------
   204     0.299491   0.245806  1 At px               205     0.245806  -0.299491  1 At py         
   208     0.190284  -0.231842  1 At py               207     0.231842   0.190284  1 At px         
   195    -0.227075  -0.186371  1 At px               196    -0.186371   0.227075  1 At py         
   199    -0.088318   0.107607  1 At py               198    -0.107607  -0.088318  1 At px         
   210     0.083406   0.068455  1 At px               211     0.068455  -0.083406  1 At py         

 Vector   27  Occ=0.000000D+00  E=-3.869789D-01
              MO Center=  9.4D-16, -1.8D-15,  4.1D-16, r^2= 6.0D+00
  Bfn.         Coefficient        Function           Bfn.         Coefficient        Function  
  ----     -------------------  ------------         ----     -------------------  ------------
    10    -0.803360   0.173157  1 At s                  8     0.750344  -0.161730  1 At s          
    11    -0.739070   0.159300  1 At s                  9     0.578657  -0.124724  1 At s          
     5    -0.454284   0.097917  1 At s                  4     0.211413  -0.045568  1 At s          
     6    -0.209470   0.045149  1 At s                  3     0.089596  -0.019312  1 At s          
     7     0.048033  -0.010353  1 At s                  2    -0.046347   0.009990  1 At s          

 Vector   28  Occ=0.000000D+00  E=-3.652757D-01
              MO Center= -2.7D-17,  1.1D-18,  1.8D-17, r^2= 1.1D-03
  Bfn.         Coefficient        Function           Bfn.         Coefficient        Function  
  ----     -------------------  ------------         ----     -------------------  ------------
   184    -0.788598   0.009185  1 At s                181     0.758920  -0.008839  1 At s          
   183    -0.703501   0.008193  1 At s                182     0.538358  -0.006270  1 At s          
   178    -0.465649   0.005423  1 At s                177     0.216784  -0.002525  1 At s          
   179    -0.176226   0.002052  1 At s                176     0.084722  -0.000987  1 At s          
   185    -0.065510   0.000763  1 At s                175    -0.044584   0.000519  1 At s          

 Vector   29  Occ=0.000000D+00  E=-3.506660D-01
              MO Center=  1.0D-15,  2.4D-16,  1.6D-16, r^2= 2.2D+00
  Bfn.         Coefficient        Function           Bfn.         Coefficient        Function  
  ----     -------------------  ------------         ----     -------------------  ------------
    90    -0.231005  -0.175003  1 At d  2              86    -0.175003   0.231005  1 At d -2       
    81    -0.169325   0.223510  1 At d -2              85    -0.223510  -0.169325  1 At d  2       
    80    -0.123233  -0.093358  1 At d  2              76    -0.093358   0.123233  1 At d -2       
    61     0.059620  -0.078698  1 At d -2              65     0.078698   0.059620  1 At d  2       
    66     0.051007  -0.067330  1 At d -2              70     0.067330   0.051007  1 At d  2       

 Vector   30  Occ=0.000000D+00  E=-3.494652D-01
              MO Center= -3.4D-15,  4.8D-17,  3.0D-15, r^2= 2.1D+00
  Bfn.         Coefficient        Function           Bfn.         Coefficient        Function  
  ----     -------------------  ------------         ----     -------------------  ------------
    87     0.000636  -0.286593  1 At d -1              89    -0.286593  -0.000636  1 At d  1       
    82     0.000619  -0.278901  1 At d -1              84    -0.278901  -0.000619  1 At d  1       
    77     0.000325  -0.146482  1 At d -1              79    -0.146482  -0.000325  1 At d  1       
    62    -0.000214   0.096189  1 At d -1              64     0.096189   0.000214  1 At d  1       
   256    -0.091829  -0.000204  1 At d  0              67    -0.000188   0.084734  1 At d -1       

 Vector   31  Occ=0.000000D+00  E=-3.479421D-01
              MO Center=  1.6D-16,  2.0D-17,  2.5D-16, r^2= 2.2D-02
  Bfn.         Coefficient        Function           Bfn.         Coefficient        Function  
  ----     -------------------  ------------         ----     -------------------  ------------
    88     0.029022   0.403052  1 At d  0              83     0.028267   0.392577  1 At d  0       
    78     0.014361   0.199448  1 At d  0              63    -0.009623  -0.133645  1 At d  0       
    68    -0.008676  -0.120489  1 At d  0              93     0.008323   0.115591  1 At d  0       
   257    -0.005281  -0.073349  1 At d  1             255    -0.073349   0.005281  1 At d -1       
   262    -0.004530  -0.062912  1 At d  1             260    -0.062912   0.004530  1 At d -1       

 Vector   32  Occ=0.000000D+00  E=-3.470010D-01
              MO Center= -2.2D-15,  1.0D-16,  3.8D-15, r^2= 2.2D+00
  Bfn.         Coefficient        Function           Bfn.         Coefficient        Function  
  ----     -------------------  ------------         ----     -------------------  ------------
    89     0.292180   0.015922  1 At d  1              87     0.015922  -0.292180  1 At d -1       
    84     0.279291   0.015220  1 At d  1              82     0.015220  -0.279291  1 At d -1       
    79     0.141388   0.007705  1 At d  1              77     0.007705  -0.141388  1 At d -1       
    64    -0.095132  -0.005184  1 At d  1              62    -0.005184   0.095132  1 At d -1       
    69    -0.087314  -0.004758  1 At d  1              67    -0.004758   0.087314  1 At d -1       

 Vector   33  Occ=0.000000D+00  E=-3.454886D-01
              MO Center= -7.5D-17,  4.0D-16,  5.5D-17, r^2= 2.3D+00
  Bfn.         Coefficient        Function           Bfn.         Coefficient        Function  
  ----     -------------------  ------------         ----     -------------------  ------------
    90     0.048557  -0.298108  1 At d  2              86     0.298108   0.048557  1 At d -2       
    81     0.277816   0.045252  1 At d -2              85     0.045252  -0.277816  1 At d  2       
    80     0.023196  -0.142406  1 At d  2              76     0.142406   0.023196  1 At d -2       
    65    -0.015548   0.095457  1 At d  2              61    -0.095457  -0.015548  1 At d -2       
    70    -0.014436   0.088624  1 At d  2              66    -0.088624  -0.014436  1 At d -2       

 Vector   34  Occ=0.000000D+00  E=-3.159742D-01
              MO Center=  6.7D-16, -6.3D-16, -9.5D-16, r^2= 7.2D-02
  Bfn.         Coefficient        Function           Bfn.         Coefficient        Function  
  ----     -------------------  ------------         ----     -------------------  ------------
   260    -0.247813  -0.134102  1 At d -1             262     0.134102  -0.247813  1 At d  1       
   255    -0.239766  -0.129748  1 At d -1             257     0.129748  -0.239766  1 At d  1       
   265    -0.106510  -0.057637  1 At d -1             267     0.057637  -0.106510  1 At d  1       
    88     0.054083  -0.099942  1 At d  0             250    -0.098210  -0.053146  1 At d -1       
   252     0.053146  -0.098210  1 At d  1              83     0.042320  -0.078205  1 At d  0       

 Vector   35  Occ=0.000000D+00  E=-3.154404D-01
              MO Center= -5.7D-16, -5.5D-17,  3.9D-16, r^2= 1.3D-01
  Bfn.         Coefficient        Function           Bfn.         Coefficient        Function  
  ----     -------------------  ------------         ----     -------------------  ------------
   261     0.402041  -0.000118  1 At d  0             256     0.386392  -0.000114  1 At d  0       
   266     0.173919  -0.000051  1 At d  0             251     0.154825  -0.000046  1 At d  0       
   236    -0.123387   0.000036  1 At d  0             241    -0.112095   0.000033  1 At d  0       
   184    -0.074228   0.000022  1 At s                 87    -0.000021  -0.072039  1 At d -1       
    89    -0.072039   0.000021  1 At d  1              82    -0.000016  -0.055441  1 At d -1       

 Vector   36  Occ=0.000000D+00  E=-3.128831D-01
              MO Center= -2.1D-15,  5.9D-17, -1.3D-15, r^2= 1.0D-01
  Bfn.         Coefficient        Function           Bfn.         Coefficient        Function  
  ----     -------------------  ------------         ----     -------------------  ------------
   259     0.014914  -0.282763  1 At d -2             263    -0.282763  -0.014914  1 At d  2       
   254     0.014407  -0.273146  1 At d -2             258    -0.273146  -0.014407  1 At d  2       
   264     0.006621  -0.125526  1 At d -2             268    -0.125526  -0.006621  1 At d  2       
   249     0.006032  -0.114357  1 At d -2             253    -0.114357  -0.006032  1 At d  2       
   234    -0.004707   0.089244  1 At d -2             238     0.089244   0.004707  1 At d  2       

 Vector   37  Occ=0.000000D+00  E=-3.120592D-01
              MO Center=  2.2D-16,  2.6D-15, -2.8D-17, r^2= 5.9D-02
  Bfn.         Coefficient        Function           Bfn.         Coefficient        Function  
  ----     -------------------  ------------         ----     -------------------  ------------
   262    -0.120751  -0.264678  1 At d  1             260     0.264678  -0.120751  1 At d -1       
   257    -0.114048  -0.249988  1 At d  1             255     0.249988  -0.114048  1 At d -1       
   267    -0.054278  -0.118975  1 At d  1             265     0.118975  -0.054278  1 At d -1       
   250     0.097372  -0.044423  1 At d -1             252    -0.044423  -0.097372  1 At d  1       
   237     0.036208   0.079365  1 At d  1             235    -0.079365   0.036208  1 At d -1       

 Vector   38  Occ=0.000000D+00  E=-3.045500D-01
              MO Center= -6.0D-20,  6.4D-20,  1.3D-20, r^2= 5.1D-08
  Bfn.         Coefficient        Function           Bfn.         Coefficient        Function  
  ----     -------------------  ------------         ----     -------------------  ------------
   263     0.294971  -0.016004  1 At d  2             259    -0.016004  -0.294971  1 At d -2       
   258     0.270846  -0.014695  1 At d  2             254    -0.014695  -0.270846  1 At d -2       
   268     0.144406  -0.007835  1 At d  2             264    -0.007835  -0.144406  1 At d -2       
   253     0.101562  -0.005510  1 At d  2             249    -0.005510  -0.101562  1 At d -2       
   238    -0.085823   0.004656  1 At d  2             234     0.004656   0.085823  1 At d -2       

 Vector   39  Occ=0.000000D+00  E=-2.869456D-01
              MO Center= -5.4D-15, -3.7D-15, -3.3D-15, r^2= 3.7D+00
  Bfn.         Coefficient        Function           Bfn.         Coefficient        Function  
  ----     -------------------  ------------         ----     -------------------  ------------
    40    -0.422141   0.020770  1 At px                41     0.020770   0.422141  1 At py         
    38     0.016298   0.331253  1 At py                37    -0.331253   0.016298  1 At px         
   215     0.250948  -0.012347  1 At pz                31     0.238084  -0.011714  1 At px         
    32    -0.011714  -0.238084  1 At py               212     0.208977  -0.010282  1 At pz         
    35    -0.009995  -0.203142  1 At py                34     0.203142  -0.009995  1 At px         

 Vector   40  Occ=0.000000D+00  E=-2.817580D-01
              MO Center=  1.2D-14, -8.3D-16, -5.9D-15, r^2= 5.3D+00
  Bfn.         Coefficient        Function           Bfn.         Coefficient        Function  
  ----     -------------------  ------------         ----     -------------------  ------------
    42     0.508947   0.227383  1 At pz                39     0.362424   0.161921  1 At pz         
    33    -0.284104  -0.126930  1 At pz                36    -0.255628  -0.114207  1 At pz         
   213     0.226798   0.101327  1 At px               214    -0.101327   0.226798  1 At py         
   211    -0.078643   0.176024  1 At py               210     0.176024   0.078643  1 At px         
    24     0.147498   0.065898  1 At pz               204    -0.134926  -0.060281  1 At px         

 Vector   41  Occ=0.000000D+00  E=-2.657870D-01
              MO Center= -7.3D-16, -1.1D-15, -3.7D-15, r^2= 5.1D+00
  Bfn.         Coefficient        Function           Bfn.         Coefficient        Function  
  ----     -------------------  ------------         ----     -------------------  ------------
    40     0.494700  -0.176788  1 At px                41     0.176788   0.494700  1 At py         
    35    -0.100950  -0.282485  1 At py                34    -0.282485   0.100950  1 At px         
    38     0.083660   0.234104  1 At py                37     0.234104  -0.083660  1 At px         
    31    -0.230566   0.082396  1 At px                32    -0.082396  -0.230566  1 At py         
    44     0.045074   0.126129  1 At py                43     0.126129  -0.045074  1 At px         

 Vector   42  Occ=0.000000D+00  E=-2.552524D-01
              MO Center= -6.5D-15, -1.7D-16,  1.2D-14, r^2= 3.3D+00
  Bfn.         Coefficient        Function           Bfn.         Coefficient        Function  
  ----     -------------------  ------------         ----     -------------------  ------------
    42     0.421984   0.094706  1 At pz               213    -0.406423  -0.091214  1 At px         
   214     0.091214  -0.406423  1 At py                36    -0.255753  -0.057399  1 At pz         
   204     0.201600   0.045245  1 At px               205    -0.045245   0.201600  1 At py         
   208    -0.042952   0.191380  1 At py               207     0.191380   0.042952  1 At px         
    33    -0.183509  -0.041185  1 At pz               211     0.036687  -0.163468  1 At py         

 Vector   43  Occ=0.000000D+00  E=-2.541233D-01
              MO Center= -7.5D-16, -1.8D-15,  3.9D-15, r^2= 9.3D-01
  Bfn.         Coefficient        Function           Bfn.         Coefficient        Function  
  ----     -------------------  ------------         ----     -------------------  ------------
   215     0.663578  -0.005411  1 At pz               209    -0.329714   0.002689  1 At pz         
   206    -0.325437   0.002654  1 At pz               212     0.242164  -0.001975  1 At pz         
   218     0.225773  -0.001841  1 At pz                40     0.224733  -0.001833  1 At px         
    41    -0.001833  -0.224733  1 At py               197     0.175105  -0.001428  1 At pz         
    35     0.001121   0.137469  1 At py                34    -0.137469   0.001121  1 At px         

 Vector   44  Occ=0.000000D+00  E=-2.470412D-01
              MO Center= -5.6D-19, -3.7D-19,  1.0D-18, r^2= 7.4D-07
  Bfn.         Coefficient        Function           Bfn.         Coefficient        Function  
  ----     -------------------  ------------         ----     -------------------  ------------
   213    -0.510099   0.062136  1 At px               214     0.062136   0.510099  1 At py         
   208    -0.031913  -0.261988  1 At py               207     0.261988  -0.031913  1 At px         
   204     0.236228  -0.028775  1 At px               205    -0.028775  -0.236228  1 At py         
   217     0.024771   0.203352  1 At py               216    -0.203352   0.024771  1 At px         
   211     0.017974   0.147558  1 At py               210    -0.147558   0.017974  1 At px         

 Vector   45  Occ=0.000000D+00  E=-1.734372D-01
              MO Center= -5.4D-14, -4.6D-14,  3.1D-14, r^2= 2.1D+01
  Bfn.         Coefficient        Function           Bfn.         Coefficient        Function  
  ----     -------------------  ------------         ----     -------------------  ------------
    12    -2.785372   0.383034  1 At s                 11     2.777793  -0.381992  1 At s          
     8    -0.842177   0.115813  1 At s                  5     0.305101  -0.041956  1 At s          
     4    -0.139551   0.019191  1 At s                  7     0.138597  -0.019059  1 At s          
     9     0.069944  -0.009618  1 At s                  6     0.049613  -0.006823  1 At s          
     3    -0.046743   0.006428  1 At s                  2     0.025347  -0.003486  1 At s          

 Vector   46  Occ=0.000000D+00  E=-1.687423D-01
              MO Center=  4.3D-17, -1.8D-19,  3.0D-17, r^2= 1.2D-06
  Bfn.         Coefficient        Function           Bfn.         Coefficient        Function  
  ----     -------------------  ------------         ----     -------------------  ------------
   184     3.311113  -0.000079  1 At s                185    -2.996353   0.000071  1 At s          
   181    -0.881383   0.000021  1 At s                183    -0.447091   0.000011  1 At s          
   178     0.313045  -0.000007  1 At s                182     0.236923  -0.000006  1 At s          
   180     0.181599  -0.000004  1 At s                177    -0.143213   0.000003  1 At s          
   266    -0.042622   0.000001  1 At d  0             176    -0.042305   0.000001  1 At s          

 Vector   47  Occ=0.000000D+00  E=-1.417602D-01
              MO Center=  1.2D-13,  4.4D-15, -1.0D-15, r^2= 7.5D+00
  Bfn.         Coefficient        Function           Bfn.         Coefficient        Function  
  ----     -------------------  ------------         ----     -------------------  ------------
    91     0.371786  -0.991863  1 At d -2              95     0.991863   0.371786  1 At d  2       
    86    -0.217294   0.579705  1 At d -2              90    -0.579705  -0.217294  1 At d  2       
    76    -0.081727   0.218034  1 At d -2              80    -0.218034  -0.081727  1 At d  2       
   265    -0.057657   0.153821  1 At d -1             267     0.153821   0.057657  1 At d  1       
   260     0.032982  -0.087990  1 At d -1             262    -0.087990  -0.032982  1 At d  1       

 Vector   48  Occ=0.000000D+00  E=-1.412532D-01
              MO Center= -1.4D-15,  1.5D-15, -1.3D-13, r^2= 7.3D+00
  Bfn.         Coefficient        Function           Bfn.         Coefficient        Function  
  ----     -------------------  ------------         ----     -------------------  ------------
    92    -0.000209   1.048417  1 At d -1              94     1.048417   0.000209  1 At d  1       
    87     0.000124  -0.620772  1 At d -1              89    -0.620772  -0.000124  1 At d  1       
   266     0.346632   0.000069  1 At d  0              77     0.000046  -0.229187  1 At d -1       
    79    -0.229187  -0.000046  1 At d  1             261    -0.200589  -0.000040  1 At d  0       
   251    -0.079634  -0.000016  1 At d  0              62    -0.000015   0.072884  1 At d -1       

 Vector   49  Occ=0.000000D+00  E=-1.404425D-01
              MO Center=  2.5D-14, -5.2D-14, -1.1D-14, r^2= 3.8D-01
  Bfn.         Coefficient        Function           Bfn.         Coefficient        Function  
  ----     -------------------  ------------         ----     -------------------  ------------
    93    -0.239957   1.458629  1 At d  0              88     0.143995  -0.875301  1 At d  0       
    78     0.052122  -0.316832  1 At d  0             265    -0.275553  -0.045331  1 At d -1       
   267     0.045331  -0.275553  1 At d  1             260     0.161328   0.026540  1 At d -1       
   262    -0.026540   0.161328  1 At d  1              63    -0.016556   0.100637  1 At d  0       
    73    -0.015069   0.091601  1 At d  0             250     0.063156   0.010390  1 At d -1       

 Vector   50  Occ=0.000000D+00  E=-1.398745D-01
              MO Center=  4.2D-13,  5.3D-15,  1.9D-13, r^2= 7.4D+00
  Bfn.         Coefficient        Function           Bfn.         Coefficient        Function  
  ----     -------------------  ------------         ----     -------------------  ------------
    94    -1.062518   0.003547  1 At d  1              92     0.003547   1.062518  1 At d -1       
    89     0.644118  -0.002150  1 At d  1              87    -0.002150  -0.644118  1 At d -1       
    79     0.229099  -0.000765  1 At d  1              77    -0.000765  -0.229099  1 At d -1       
   268     0.224650  -0.000750  1 At d  2             264     0.000750   0.224650  1 At d -2       
   263    -0.131694   0.000440  1 At d  2             259    -0.000440  -0.131694  1 At d -2       

 Vector   51  Occ=0.000000D+00  E=-1.395280D-01
              MO Center= -1.4D-15,  1.1D-15, -1.6D-14, r^2= 1.7D+00
  Bfn.         Coefficient        Function           Bfn.         Coefficient        Function  
  ----     -------------------  ------------         ----     -------------------  ------------
   133    -0.131492  -0.586128  1 At f -1             135     0.586128  -0.131492  1 At f  1       
   119    -0.050444  -0.224856  1 At f -1             121     0.224856  -0.050444  1 At f  1       
   112    -0.010431  -0.046498  1 At f -1             114     0.046498  -0.010431  1 At f  1       
   305    -0.009054  -0.040359  1 At f -2             309    -0.040359   0.009054  1 At f  2       
   126     0.008192   0.036516  1 At f -1             128    -0.036516   0.008192  1 At f  1       

 Vector   52  Occ=0.000000D+00  E=-1.394695D-01
              MO Center= -2.6D-16, -1.2D-15,  1.8D-16, r^2= 1.2D-02
  Bfn.         Coefficient        Function           Bfn.         Coefficient        Function  
  ----     -------------------  ------------         ----     -------------------  ------------
   134     0.050169   0.846386  1 At f  0             120     0.019283   0.325312  1 At f  0       
   113     0.004041   0.068170  1 At f  0             127    -0.003120  -0.052639  1 At f  0       
   308    -0.002790  -0.047074  1 At f  1             306    -0.047074   0.002790  1 At f -1       
    45     0.002420   0.040822  1 At pz                42    -0.002213  -0.037335  1 At pz         

 Vector   53  Occ=0.000000D+00  E=-1.393815D-01
              MO Center= -1.1D-15,  1.9D-15, -1.4D-14, r^2= 1.7D+00
  Bfn.         Coefficient        Function           Bfn.         Coefficient        Function  
  ----     -------------------  ------------         ----     -------------------  ------------
   135     0.594709  -0.077017  1 At f  1             133     0.077017   0.594709  1 At f -1       
   121     0.228718  -0.029620  1 At f  1             119     0.029620   0.228718  1 At f -1       
   307     0.063966  -0.008284  1 At f  0             114     0.048165  -0.006238  1 At f  1       
   112     0.006238   0.048165  1 At f -1             128    -0.036980   0.004789  1 At f  1       
   126    -0.004789  -0.036980  1 At f -1             293     0.026357  -0.003413  1 At f  0       

 Vector   54  Occ=0.000000D+00  E=-1.392925D-01
              MO Center=  7.4D-16, -3.0D-15,  4.0D-15, r^2= 1.7D+00
  Bfn.         Coefficient        Function           Bfn.         Coefficient        Function  
  ----     -------------------  ------------         ----     -------------------  ------------
   136    -0.118568  -0.590338  1 At f  2             132     0.590338  -0.118568  1 At f -2       
   122    -0.045347  -0.225776  1 At f  2             118     0.225776  -0.045347  1 At f -2       
   115    -0.009209  -0.045848  1 At f  2             111     0.045848  -0.009209  1 At f -2       
   129     0.007359   0.036638  1 At f  2             125    -0.036638   0.007359  1 At f -2       
   310     0.005682   0.028292  1 At f  3             304     0.028292  -0.005682  1 At f -3       

 Vector   55  Occ=0.000000D+00  E=-1.390021D-01
              MO Center= -3.0D-15,  2.8D-15, -2.3D-14, r^2= 1.7D+00
  Bfn.         Coefficient        Function           Bfn.         Coefficient        Function  
  ----     -------------------  ------------         ----     -------------------  ------------
   132    -0.440214   0.408064  1 At f -2             136    -0.408064  -0.440214  1 At f  2       
   118    -0.169194   0.156838  1 At f -2             122    -0.156838  -0.169194  1 At f  2       
   111    -0.035636   0.033034  1 At f -2             115    -0.033034  -0.035636  1 At f  2       
   306     0.027245  -0.025256  1 At f -1             308    -0.025256  -0.027245  1 At f  1       
   125     0.027219  -0.025231  1 At f -2             129     0.025231   0.027219  1 At f  2       

 Vector   56  Occ=0.000000D+00  E=-1.389364D-01
              MO Center=  4.9D-13, -1.7D-14,  3.5D-14, r^2= 7.7D+00
  Bfn.         Coefficient        Function           Bfn.         Coefficient        Function  
  ----     -------------------  ------------         ----     -------------------  ------------
    95    -0.197731   1.073167  1 At d  2              91    -1.073167  -0.197731  1 At d -2       
    90     0.121285  -0.658262  1 At d  2              86     0.658262   0.121285  1 At d -2       
    80     0.042293  -0.229541  1 At d  2              76     0.229541   0.042293  1 At d -2       
    75    -0.013456   0.073030  1 At d  2              71    -0.073030  -0.013456  1 At d -2       
    65    -0.013453   0.073014  1 At d  2              61    -0.073014  -0.013453  1 At d -2       

 Vector   57  Occ=0.000000D+00  E=-1.384165D-01
              MO Center= -2.3D-13, -2.4D-13,  8.4D-15, r^2= 1.0D+01
  Bfn.         Coefficient        Function           Bfn.         Coefficient        Function  
  ----     -------------------  ------------         ----     -------------------  ------------
    43     1.303193   0.007488  1 At px                44     0.007488  -1.303193  1 At py         
    40    -1.188144  -0.006827  1 At px                41    -0.006827   1.188144  1 At py         
   218    -1.037164  -0.005959  1 At pz               215     0.961805   0.005526  1 At pz         
    31     0.266554   0.001532  1 At px                32     0.001532  -0.266554  1 At py         
   206    -0.214108  -0.001230  1 At pz               209     0.086395   0.000496  1 At pz         

 Vector   58  Occ=0.000000D+00  E=-1.383236D-01
              MO Center= -8.0D-15,  5.0D-15, -8.2D-17, r^2= 1.7D+00
  Bfn.         Coefficient        Function           Bfn.         Coefficient        Function  
  ----     -------------------  ------------         ----     -------------------  ------------
   131     0.142893   0.586658  1 At f -3             137    -0.586658   0.142893  1 At f  3       
   117     0.054401   0.223346  1 At f -3             123    -0.223346   0.054401  1 At f  3       
   110     0.010810   0.044383  1 At f -3             116    -0.044383   0.010810  1 At f  3       
   124    -0.008838  -0.036286  1 At f -3             130     0.036286  -0.008838  1 At f  3       

 Vector   59  Occ=0.000000D+00  E=-1.378984D-01
              MO Center= -2.6D-15,  1.2D-15, -2.2D-17, r^2= 1.7D+00
  Bfn.         Coefficient        Function           Bfn.         Coefficient        Function  
  ----     -------------------  ------------         ----     -------------------  ------------
   137    -0.599603   0.043709  1 At f  3             131    -0.043709  -0.599603  1 At f -3       
   123    -0.229967   0.016764  1 At f  3             117    -0.016764  -0.229967  1 At f -3       
   116    -0.048293   0.003520  1 At f  3             110    -0.003520  -0.048293  1 At f -3       
   130     0.036866  -0.002687  1 At f  3             124     0.002687   0.036866  1 At f -3       

 Vector   60  Occ=0.000000D+00  E=-1.373252D-01
              MO Center= -5.9D-13, -1.6D-13,  4.8D-13, r^2= 1.2D+01
  Bfn.         Coefficient        Function           Bfn.         Coefficient        Function  
  ----     -------------------  ------------         ----     -------------------  ------------
    45    -1.413624   0.708542  1 At pz                42     1.321530  -0.662382  1 At pz         
   217    -0.458362  -0.914487  1 At py               216    -0.914487   0.458362  1 At px         
   214     0.435759   0.869390  1 At py               213     0.869390  -0.435759  1 At px         
    33    -0.292175   0.146445  1 At pz               205    -0.093799  -0.187140  1 At py         
   204    -0.187140   0.093799  1 At px                24     0.092922  -0.046575  1 At pz         

 Vector   61  Occ=0.000000D+00  E=-1.294745D-01
              MO Center= -1.1D-14,  5.9D-14, -1.6D-14, r^2= 2.0D-02
  Bfn.         Coefficient        Function           Bfn.         Coefficient        Function  
  ----     -------------------  ------------         ----     -------------------  ------------
   265    -1.089412   0.152649  1 At d -1             267    -0.152649  -1.089412  1 At d  1       
   260     0.756059  -0.105940  1 At d -1             262     0.105940   0.756059  1 At d  1       
    93    -0.058350  -0.416429  1 At d  0              88     0.041387   0.295365  1 At d  0       
   250     0.234070  -0.032798  1 At d -1             252     0.032798   0.234070  1 At d  1       
    78     0.011699   0.083494  1 At d  0             245    -0.074439   0.010430  1 At d -1       

 Vector   62  Occ=0.000000D+00  E=-1.292914D-01
              MO Center=  9.5D-14, -1.2D-16, -1.2D-13, r^2= 4.1D-01
  Bfn.         Coefficient        Function           Bfn.         Coefficient        Function  
  ----     -------------------  ------------         ----     -------------------  ------------
   266    -1.570022   0.000061  1 At d  0             261     1.094618  -0.000042  1 At d  0       
   251     0.335416  -0.000013  1 At d  0              92     0.000010   0.262290  1 At d -1       
    94     0.262290  -0.000010  1 At d  1             184    -0.232909   0.000009  1 At s          
    87    -0.000007  -0.186602  1 At d -1              89    -0.186602   0.000007  1 At d  1       
   183     0.152283  -0.000006  1 At s                185     0.134543  -0.000005  1 At s          

 Vector   63  Occ=0.000000D+00  E=-1.292595D-01
              MO Center=  1.0D-13,  2.1D-14,  3.0D-13, r^2= 1.4D+01
  Bfn.         Coefficient        Function           Bfn.         Coefficient        Function  
  ----     -------------------  ------------         ----     -------------------  ------------
    41     0.686486   1.603808  1 At py                40     1.603808  -0.686486  1 At px         
    44    -0.639951  -1.495091  1 At py                43    -1.495091   0.639951  1 At px         
    32    -0.130287  -0.304384  1 At py                31    -0.304384   0.130287  1 At px         
    38    -0.117532  -0.274585  1 At py                37    -0.274585   0.117532  1 At px         
    22     0.093558  -0.040046  1 At px                23     0.040046   0.093558  1 At py         

 Vector   64  Occ=0.000000D+00  E=-1.285016D-01
              MO Center=  8.8D-13,  5.8D-15,  3.5D-13, r^2= 3.4D-01
  Bfn.         Coefficient        Function           Bfn.         Coefficient        Function  
  ----     -------------------  ------------         ----     -------------------  ------------
   268    -1.116154   0.007206  1 At d  2             264    -0.007206  -1.116154  1 At d -2       
   263     0.779641  -0.005034  1 At d  2             259     0.005034   0.779641  1 At d -2       
   253     0.241627  -0.001560  1 At d  2             249     0.001560   0.241627  1 At d -2       
    94    -0.240180   0.001551  1 At d  1              92     0.001551   0.240180  1 At d -1       
    89     0.172702  -0.001115  1 At d  1              87    -0.001115  -0.172702  1 At d -1       

 Vector   65  Occ=0.000000D+00  E=-1.279082D-01
              MO Center=  5.7D-13,  1.1D-13, -3.2D-16, r^2= 1.9D-01
  Bfn.         Coefficient        Function           Bfn.         Coefficient        Function  
  ----     -------------------  ------------         ----     -------------------  ------------
   267     0.065677  -1.132109  1 At d  1             265     1.132109   0.065677  1 At d -1       
   262    -0.046569   0.802732  1 At d  1             260    -0.802732  -0.046569  1 At d -1       
   252    -0.013967   0.240765  1 At d  1             250    -0.240765  -0.013967  1 At d -1       
    95    -0.010267   0.176983  1 At d  2              91     0.176983   0.010267  1 At d -2       
    90     0.007419  -0.127883  1 At d  2              86    -0.127883  -0.007419  1 At d -2       

 Vector   66  Occ=0.000000D+00  E=-1.269973D-01
              MO Center= -6.3D-13, -1.2D-13,  4.7D-13, r^2= 1.2D+01
  Bfn.         Coefficient        Function           Bfn.         Coefficient        Function  
  ----     -------------------  ------------         ----     -------------------  ------------
    42     1.684393  -0.494354  1 At pz                45    -1.513208   0.444113  1 At pz         
   214    -0.387817  -1.321393  1 At py               213    -1.321393   0.387817  1 At px         
   217     0.344834   1.174938  1 At py               216     1.174938  -0.344834  1 At px         
    39    -0.334384   0.098139  1 At pz                33    -0.310512   0.091133  1 At pz         
   211     0.084469   0.287809  1 At py               210     0.287809  -0.084469  1 At px         

 Vector   67  Occ=0.000000D+00  E=-1.264900D-01
              MO Center= -6.8D-13, -9.3D-14, -6.8D-14, r^2= 3.4D+00
  Bfn.         Coefficient        Function           Bfn.         Coefficient        Function  
  ----     -------------------  ------------         ----     -------------------  ------------
   215     2.315117   0.000334  1 At pz               218    -2.049323  -0.000295  1 At pz         
    41     0.000131  -0.908468  1 At py                40     0.908468   0.000131  1 At px         
    44    -0.000117   0.811940  1 At py                43    -0.811940  -0.000117  1 At px         
   212    -0.503900  -0.000073  1 At pz               206    -0.433938  -0.000063  1 At pz         
    38    -0.000027   0.184924  1 At py                37    -0.184924  -0.000027  1 At px         

 Vector   68  Occ=0.000000D+00  E=-1.250497D-01
              MO Center=  2.7D-18, -3.3D-20, -3.0D-19, r^2= 2.8D-08
  Bfn.         Coefficient        Function           Bfn.         Coefficient        Function  
  ----     -------------------  ------------         ----     -------------------  ------------
   264     0.008592  -1.159688  1 At d -2             268     1.159688   0.008592  1 At d  2       
   259    -0.006284   0.848234  1 At d -2             263    -0.848234  -0.006284  1 At d  2       
   253    -0.245765  -0.001821  1 At d  2             249    -0.001821   0.245765  1 At d -2       
   248     0.085241   0.000632  1 At d  2             244     0.000632  -0.085241  1 At d -2       
   258     0.078498   0.000582  1 At d  2             254     0.000582  -0.078498  1 At d -2       

 Vector   69  Occ=0.000000D+00  E=-1.242240D-01
              MO Center=  1.9D-17,  8.9D-17,  8.8D-17, r^2= 2.8D-05
  Bfn.         Coefficient        Function           Bfn.         Coefficient        Function  
  ----     -------------------  ------------         ----     -------------------  ------------
   213     1.917518   0.467716  1 At px               214     0.467716  -1.917518  1 At py         
   216    -1.640615  -0.400175  1 At px               217    -0.400175   1.640615  1 At py         
   210    -0.470792  -0.114835  1 At px               211    -0.114835   0.470792  1 At py         
   204    -0.346500  -0.084517  1 At px               205    -0.084517   0.346500  1 At py         
   207     0.117961   0.028773  1 At px               208     0.028773  -0.117961  1 At py         

 Vector   70  Occ=0.000000D+00  E=-1.090306D-01
              MO Center= -1.2D-17,  3.7D-17,  2.1D-17, r^2= 1.2D-02
  Bfn.         Coefficient        Function           Bfn.         Coefficient        Function  
  ----     -------------------  ------------         ----     -------------------  ------------
   307    -0.883892  -0.049222  1 At f  0             293    -0.323079  -0.017992  1 At f  0       
   300     0.089669   0.004994  1 At f  0             286    -0.065531  -0.003649  1 At f  0       
   215     0.059277   0.003301  1 At pz               135     0.053938   0.003004  1 At f  1       
   133    -0.003004   0.053938  1 At f -1             218    -0.041752  -0.002325  1 At pz         
   212    -0.025240  -0.001406  1 At pz         

 Vector   71  Occ=0.000000D+00  E=-1.084331D-01
              MO Center=  5.3D-17,  1.7D-17,  9.1D-18, r^2= 5.3D-03
  Bfn.         Coefficient        Function           Bfn.         Coefficient        Function  
  ----     -------------------  ------------         ----     -------------------  ------------
   308     0.280843  -0.559115  1 At f  1             306    -0.559115  -0.280843  1 At f -1       
   294     0.102712  -0.204484  1 At f  1             292    -0.204484  -0.102712  1 At f -1       
   134     0.035723  -0.071120  1 At f  0             301    -0.028534   0.056807  1 At f  1       
   299     0.056807   0.028534  1 At f -1             287     0.020996  -0.041800  1 At f  1       
   285    -0.041800  -0.020996  1 At f -1             213     0.020465  -0.040742  1 At px         

 Vector   72  Occ=0.000000D+00  E=-1.073957D-01
              MO Center=  9.0D-17,  9.5D-17,  3.1D-17, r^2= 8.0D-03
  Bfn.         Coefficient        Function           Bfn.         Coefficient        Function  
  ----     -------------------  ------------         ----     -------------------  ------------
[...]
  ----     -------------------  ------------         ----     -------------------  ------------
    54     2.293955  -0.175752  1 At d  1              52    -0.175751  -2.293951  1 At d -1       
    59    -2.016669   0.154507  1 At d  1              57     0.154507   2.016665  1 At d -1       
    49    -1.589170   0.121754  1 At d  1              47     0.121754   1.589167  1 At d -1       
    64     1.477545  -0.113202  1 At d  1              62    -0.113202  -1.477542  1 At d -1       
   224     0.087876   1.146988  1 At d -2             228     1.146967  -0.087876  1 At d  2       

 Vector  333  Occ=0.000000D+00  E= 1.486173D+02
              MO Center= -4.4D-17,  2.9D-18, -3.3D-17, r^2= 1.5D-03
  Bfn.         Coefficient        Function           Bfn.         Coefficient        Function  
  ----     -------------------  ------------         ----     -------------------  ------------
    53    -0.567917   2.759915  1 At d  0              58     0.499269  -2.426305  1 At d  0       
    48     0.393433  -1.911970  1 At d  0              63    -0.365797   1.777671  1 At d  0       
   227    -0.327888   1.593440  1 At d  1             225     1.593438   0.327886  1 At d -1       
   232     0.288254  -1.400830  1 At d  1             230    -1.400828  -0.288253  1 At d -1       
    68     0.248754  -1.208874  1 At d  0             222     0.227149  -1.103878  1 At d  1       

 Vector  334  Occ=0.000000D+00  E= 1.486173D+02
              MO Center=  2.1D-16, -2.5D-17,  5.1D-17, r^2= 1.2D-02
  Bfn.         Coefficient        Function           Bfn.         Coefficient        Function  
  ----     -------------------  ------------         ----     -------------------  ------------
   226     2.817742  -0.000014  1 At d  0             231    -2.477143   0.000013  1 At d  0       
   221    -1.952031   0.000010  1 At d  0             236     1.814918  -0.000009  1 At d  0       
    52    -0.000008  -1.626826  1 At d -1              54    -1.626820   0.000008  1 At d  1       
    57     0.000007   1.430180  1 At d -1              59     1.430175  -0.000007  1 At d  1       
   241    -1.234203   0.000006  1 At d  0              47     0.000006   1.127007  1 At d -1       

 Vector  335  Occ=0.000000D+00  E= 1.486173D+02
              MO Center= -1.0D-16,  1.2D-16, -4.0D-18, r^2= 6.0D-03
  Bfn.         Coefficient        Function           Bfn.         Coefficient        Function  
  ----     -------------------  ------------         ----     -------------------  ------------
   225    -2.253465   0.463695  1 At d -1             227     0.463694   2.253463  1 At d  1       
   230     1.981073  -0.407645  1 At d -1             232    -0.407644  -1.981072  1 At d  1       
   220     1.561120  -0.321231  1 At d -1             222    -0.321230  -1.561118  1 At d  1       
   235    -1.451465   0.298667  1 At d -1             237     0.298667   1.451463  1 At d  1       
    55    -0.231850  -1.126742  1 At d  2              51    -1.126720   0.231844  1 At d -2       

 Vector  336  Occ=0.000000D+00  E= 1.486173D+02
              MO Center= -7.1D-23, -4.3D-23, -1.6D-22, r^2= 4.3D-13
  Bfn.         Coefficient        Function           Bfn.         Coefficient        Function  
  ----     -------------------  ------------         ----     -------------------  ------------
   228    -2.564710  -0.196654  1 At d  2             224    -0.196654   2.564701  1 At d -2       
   233     2.254696   0.172884  1 At d  2             229     0.172883  -2.254688  1 At d -2       
   223     1.776739   0.136235  1 At d  2             219     0.136235  -1.776733  1 At d -2       
   238    -1.651939  -0.126666  1 At d  2             234    -0.126666   1.651933  1 At d -2       
   243     1.123373   0.086137  1 At d  2             239     0.086137  -1.123368  1 At d -2       

 Vector  337  Occ=0.000000D+00  E= 2.097705D+02
              MO Center=  2.6D-17,  2.2D-18, -1.6D-17, r^2= 3.8D-04
  Bfn.         Coefficient        Function           Bfn.         Coefficient        Function  
  ----     -------------------  ------------         ----     -------------------  ------------
     3    -1.196687 -14.602821  1 At s                  4     1.077429  13.147545  1 At s          
     2     0.946571  11.550733  1 At s                  5    -0.838320 -10.229777  1 At s          
     6     0.608707   7.427869  1 At s                  7    -0.424261  -5.177139  1 At s          
     1    -0.305072  -3.722705  1 At s                  8     0.284095   3.466723  1 At s          
     9    -0.178598  -2.179374  1 At s                 10     0.099487   1.214009  1 At s          

 Vector  338  Occ=0.000000D+00  E= 2.097705D+02
              MO Center= -6.0D-27,  6.8D-29, -9.2D-27, r^2= 3.0D-22
  Bfn.         Coefficient        Function           Bfn.         Coefficient        Function  
  ----     -------------------  ------------         ----     -------------------  ------------
   176    14.651773   0.000005  1 At s                177   -13.191619  -0.000005  1 At s          
   175   -11.589453  -0.000004  1 At s                178    10.264069   0.000004  1 At s          
   179    -7.452768  -0.000003  1 At s                180     5.194494   0.000002  1 At s          
   174     3.735184   0.000001  1 At s                181    -3.478344  -0.000001  1 At s          
   182     2.186680   0.000001  1 At s                183    -1.218078  -0.000000  1 At s          

 Vector  339  Occ=0.000000D+00  E= 2.667354D+02
              MO Center=  1.4D-15,  1.3D-15, -7.6D-16, r^2= 1.8D-02
  Bfn.         Coefficient        Function           Bfn.         Coefficient        Function  
  ----     -------------------  ------------         ----     -------------------  ------------
    17    -0.000004  -3.023309  1 At py                16     3.023309  -0.000004  1 At px         
   191    -3.023309   0.000004  1 At pz                20     0.000004   2.973434  1 At py         
    19    -2.973434   0.000004  1 At px               194     2.973434  -0.000004  1 At pz         
    23    -0.000003  -2.382933  1 At py                22     2.382933  -0.000003  1 At px         
   197    -2.382933   0.000003  1 At pz                14     0.000002   1.843968  1 At py         

 Vector  340  Occ=0.000000D+00  E= 2.667354D+02
              MO Center=  1.3D-17, -1.1D-18,  3.6D-17, r^2= 5.6D-04
  Bfn.         Coefficient        Function           Bfn.         Coefficient        Function  
  ----     -------------------  ------------         ----     -------------------  ------------
    18     0.538616   2.974944  1 At pz               190    -2.974944   0.538616  1 At py         
   189     0.538616   2.974944  1 At px                21    -0.529731  -2.925867  1 At pz         
   193     2.925867  -0.529731  1 At py               192    -0.529731  -2.925867  1 At px         
    24     0.424531   2.344812  1 At pz               196    -2.344812   0.424530  1 At py         
   195     0.424530   2.344812  1 At px                15    -0.328511  -1.814469  1 At pz         

 Vector  341  Occ=0.000000D+00  E= 2.791722D+02
              MO Center=  3.5D-15,  4.2D-15, -9.0D-17, r^2= 2.6D-02
  Bfn.         Coefficient        Function           Bfn.         Coefficient        Function  
  ----     -------------------  ------------         ----     -------------------  ------------
    17     1.192692   3.463598  1 At py                16     3.463582  -1.192690  1 At px         
    20    -1.168696  -3.393911  1 At py                19    -3.393895   1.168693  1 At px         
    23     0.934947   2.715100  1 At py                22     2.715088  -0.934944  1 At px         
    14    -0.731625  -2.124651  1 At py                13    -2.124641   0.731623  1 At px         
    26    -0.681754  -1.979824  1 At py                25    -1.979815   0.681752  1 At px         

 Vector  342  Occ=0.000000D+00  E= 2.791722D+02
              MO Center=  3.8D-17, -2.1D-18,  7.9D-17, r^2= 1.4D-03
  Bfn.         Coefficient        Function           Bfn.         Coefficient        Function  
  ----     -------------------  ------------         ----     -------------------  ------------
    18     0.851811   4.143232  1 At pz                21    -0.834673  -4.059871  1 At pz         
    24     0.667732   3.247863  1 At pz                15    -0.522521  -2.541554  1 At pz         
    27    -0.486903  -2.368309  1 At pz               190     2.071630  -0.425906  1 At py         
   189    -0.425905  -2.071603  1 At px               193    -2.029949   0.417337  1 At py         
   192     0.417336   2.029923  1 At px                30     0.338063   1.644345  1 At pz         

 Vector  343  Occ=0.000000D+00  E= 2.791722D+02
              MO Center=  6.9D-16,  6.1D-16, -3.7D-16, r^2= 8.7D-03
  Bfn.         Coefficient        Function           Bfn.         Coefficient        Function  
  ----     -------------------  ------------         ----     -------------------  ------------
   191     4.229889   0.000006  1 At pz               194    -4.144784  -0.000006  1 At pz         
   197     3.315792   0.000005  1 At pz               188    -2.594711  -0.000004  1 At pz         
   200    -2.417843  -0.000004  1 At pz                16     2.114958   0.000001  1 At px         
    17     0.000005  -2.114930  1 At py                19    -2.072406  -0.000001  1 At px         
    20    -0.000005   2.072378  1 At py               203     1.678737   0.000003  1 At pz         

 Vector  344  Occ=0.000000D+00  E= 2.791722D+02
              MO Center=  7.5D-24,  4.8D-23,  5.8D-24, r^2= 2.8D-13
  Bfn.         Coefficient        Function           Bfn.         Coefficient        Function  
  ----     -------------------  ------------         ----     -------------------  ------------
   189    -0.737709   3.588148  1 At px               190     3.588133   0.737708  1 At py         
   192     0.722866  -3.515956  1 At px               193    -3.515941  -0.722866  1 At py         
   195    -0.578287   2.812735  1 At px               196     2.812723   0.578286  1 At py         
   186     0.452527  -2.201053  1 At px               187    -2.201043  -0.452527  1 At py         
   198     0.421681  -2.051018  1 At px               199    -2.051009  -0.421681  1 At py         

 Vector  345  Occ=0.000000D+00  E= 2.181724D+03
              MO Center=  6.6D-19,  9.9D-18,  7.7D-18, r^2= 4.6D-04
  Bfn.         Coefficient        Function           Bfn.         Coefficient        Function  
  ----     -------------------  ------------         ----     -------------------  ------------
     3    -1.380120 -10.110446  1 At s                  2     1.229919   9.010107  1 At s          
     4     1.216545   8.912132  1 At s                  5    -0.952798  -6.979980  1 At s          
     6     0.700301   5.130246  1 At s                  1    -0.628596  -4.604954  1 At s          
     7    -0.493376  -3.614361  1 At s                  8     0.332959   2.439180  1 At s          
     9    -0.210397  -1.541318  1 At s                 10     0.117579   0.861358  1 At s          

 Vector  346  Occ=0.000000D+00  E= 2.181724D+03
              MO Center=  1.6D-26,  1.0D-30,  3.3D-27, r^2= 3.4D-17
  Bfn.         Coefficient        Function           Bfn.         Coefficient        Function  
  ----     -------------------  ------------         ----     -------------------  ------------
   176    10.204207   0.000002  1 At s                175    -9.093664  -0.000002  1 At s          
   177    -8.994780  -0.000002  1 At s                178     7.044710   0.000001  1 At s          
   179    -5.177822  -0.000001  1 At s                174     4.647659   0.000001  1 At s          
   180     3.647880   0.000001  1 At s                181    -2.461800  -0.000000  1 At s          
   182     1.555612   0.000000  1 At s                183    -0.869345  -0.000000  1 At s          


   alpha - beta orbital overlaps 
   ----------------------------- 


   alpha      1      2      3      4      5      6      7      8      9     10
    beta      5      5      5      5      5      5      5      5      8      5
 overlap   0.048  0.399  0.539  2.394  3.848  0.287  0.761  1.381  0.155  0.405


   alpha     11     12     13     14     15     16     17     18     19     20
    beta      5      5     22     23     24     22     23     24     22     23
 overlap   0.137  0.038  0.028  0.028  0.028  0.150  0.150  0.150  0.229  0.229


   alpha     21     22     23     24     25     26     27     28     29     30
    beta     24     22     23     24     22     23     24     22     23     24
 overlap   0.229  0.880  0.880  0.880  0.269  0.269  0.269  0.166  0.166  0.166


   alpha     31     32     33     34     35     36     37     38     39     40
    beta     22     23     24     31     32     33     22     23     24     31
 overlap   0.227  0.227  0.227  0.124  0.124  0.124  0.134  0.134  0.134  0.031


   alpha     41     42     43     44     45     46     47     48     49     50
    beta     32     33     22     23     24     61     62     63     64     65
 overlap   0.031  0.031  0.026  0.026  0.026  0.001  0.001  0.001  0.001  0.001


   alpha     51     52     53     54     55     56     57     58     59     60
    beta     61     62     63     64     65     61     62     63     64     65
 overlap   0.022  0.022  0.022  0.022  0.022  0.002  0.002  0.002  0.002  0.002


   alpha     61     62     63     64     65     66     67     68     69     70
    beta     61     62     63     64     65     61     62     63     64     65
 overlap   0.211  0.211  0.211  0.211  0.211  0.181  0.181  0.181  0.181  0.181


   alpha     71     72     73     74     75     76     77     78     79     80
    beta     61     62     63     64     65     61     62     63     64     65
 overlap   0.110  0.110  0.110  0.110  0.110  0.015  0.015  0.015  0.015  0.015


   alpha     81     82     83     84     85     86     87     88     89     90
    beta     61     62     63     64     65     61     62     63     64     65
 overlap   0.008  0.008  0.008  0.008  0.008  0.003  0.003  0.003  0.003  0.003


   alpha     91     92     93     94     95     96     97     98     99    100
    beta     61     62     63     64     65     23     22     23     24     22
 overlap   0.001  0.001  0.001  0.001  0.001  0.000  0.000  0.000  0.000  0.000


   alpha    101    102    103    104    105    106    107    108    109    110
    beta     33     22     23     22     32     33     31     33     22     23
 overlap   0.000  0.000  0.000  0.000  0.000  0.000  0.000  0.000  0.000  0.000


   alpha    111    112    113    114    115    116    117    118    119    120
    beta     22     32     33     31     33     22     23     22     32     33
 overlap   0.000  0.000  0.000  0.000  0.000  0.000  0.000  0.000  0.000  0.000


   alpha    121    122    123    124    125    126    127    128    129    130
    beta     31     33     22     23     22     32     33     31     33     22
 overlap   0.000  0.000  0.000  0.000  0.000  0.000  0.000  0.000  0.000  0.000


   alpha    131    132    133    134    135    136    137    138    139    140
    beta     23     22     32     33     31     33     22     61     62     61
 overlap   0.000  0.000  0.000  0.000  0.000  0.000  0.000  0.000  0.000  0.000


   alpha    141    142    143    144    145    146    147    148    149    150
    beta     62     63     64     65     64      5     61     62     61     62
 overlap   0.000  0.000  0.000  0.000  0.000  0.000  0.000  0.000  0.000  0.000


   alpha    151    152    153    154    155    156    157    158    159    160
    beta     63     64     65     22      5     61     62     61     62     63
 overlap   0.000  0.000  0.000  0.000  0.000  0.000  0.000  0.000  0.000  0.000


   alpha    161    162    163    164    165    166    167    168    169    170
    beta     64     65     22      5     61     62     61     62      5     64
 overlap   0.000  0.000  0.000  0.000  0.000  0.000  0.000  0.000  0.000  0.000


   alpha    171    172    173
    beta     65     22      5
 overlap   0.000  0.000  0.000

     --------------------------
     Expectation value of S2:  
     --------------------------
      <S2> =      0.1123 (Exact =     0.0000)


 Parallel integral file used     270 records with       0 large values


 Task  times  cpu:       14.2s     wall:       58.8s


                                NWChem Input Module
                                -------------------


 Summary of allocated global arrays
-----------------------------------
  No active global arrays



                         GA Statistics for process    0
                         ------------------------------

       create   destroy   get      put      acc     scatter   gather  read&inc
calls: 5369     5369     5.48e+04 3.78e+04 1.50e+04    0        0     1175     
number of processes/call 2.76e+00 2.67e+00 1.43e+00 0.00e+00 0.00e+00
bytes total:             9.23e+08 6.94e+08 1.77e+08 0.00e+00 0.00e+00 9.40e+03
bytes remote:            6.89e+08 4.99e+08 1.11e+08 0.00e+00 0.00e+00 0.00e+00
Max memory consumed for GA by this process: 8775408 bytes

MA_summarize_allocated_blocks: starting scan ...
MA_summarize_allocated_blocks: scan completed: 0 heap blocks, 0 stack blocks
MA usage statistics:

	allocation statistics:
					      heap	     stack
					      ----	     -----
	current number of blocks	         0	         0
	maximum number of blocks	        45	        57
	current total bytes		         0	         0
	maximum total bytes		 154864008	  51835192
	maximum total K-bytes		    154865	     51836
	maximum total M-bytes		       155	        52


                                     CITATION
                                     --------
                Please cite the following reference when publishing
                           results obtained with NWChem:

                 M. Valiev, E.J. Bylaska, N. Govind, K. Kowalski,
              T.P. Straatsma, H.J.J. van Dam, D. Wang, J. Nieplocha,
                        E. Apra, T.L. Windus, W.A. de Jong
                 "NWChem: a comprehensive and scalable open-source
                  solution for large scale molecular simulations"
                      Comput. Phys. Commun. 181, 1477 (2010)
                           doi:10.1016/j.cpc.2010.04.018

                                      AUTHORS
                                      -------
          E. Apra, E. J. Bylaska, W. A. de Jong, N. Govind, K. Kowalski,
       T. P. Straatsma, M. Valiev, H. J. J. van Dam, D. Wang, T. L. Windus,
        J. Hammond, J. Autschbach, K. Bhaskaran-Nair, J. Brabec, K. Lopata,
    S. A. Fischer, S. Krishnamoorthy, M. Jacquelin, W. Ma, M. Klemm, O. Villa,
      Y. Chen, V. Anisimov, F. Aquino, S. Hirata, M. T. Hackler, V. Konjkov,
            D. Mejia-Rodriguez, T. Risthaus, M. Malagoli, A. Marenich,
   A. Otero-de-la-Roza, J. Mullin, P. Nichols, R. Peverati, J. Pittner, Y. Zhao,
        P.-D. Fan, A. Fonari, M. J. Williamson, R. J. Harrison, J. R. Rehr,
      M. Dupuis, D. Silverstein, D. M. A. Smith, J. Nieplocha, V. Tipparaju,
    M. Krishnan, B. E. Van Kuiken, A. Vazquez-Mayagoitia, L. Jensen, M. Swart,
      Q. Wu, T. Van Voorhis, A. A. Auer, M. Nooijen, L. D. Crosby, E. Brown,
      G. Cisneros, G. I. Fann, H. Fruchtl, J. Garza, K. Hirao, R. A. Kendall,
      J. A. Nichols, K. Tsemekhman, K. Wolinski, J. Anchell, D. E. Bernholdt,
      P. Borowski, T. Clark, D. Clerc, H. Dachsel, M. J. O. Deegan, K. Dyall,
    D. Elwood, E. Glendening, M. Gutowski, A. C. Hess, J. Jaffe, B. G. Johnson,
     J. Ju, R. Kobayashi, R. Kutteh, Z. Lin, R. Littlefield, X. Long, B. Meng,
      T. Nakajima, S. Niu, L. Pollack, M. Rosing, K. Glaesemann, G. Sandrone,
      M. Stave, H. Taylor, G. Thomas, J. H. van Lenthe, A. T. Wong, Z. Zhang.

 Total times  cpu:       73.4s     wall:      293.4s
