 argument  1 = nwc.nw
                                         
                                         


              Northwest Computational Chemistry Package (NWChem) 6.8
              ------------------------------------------------------


                    Environmental Molecular Sciences Laboratory
                       Pacific Northwest National Laboratory
                                Richland, WA 99352

                              Copyright (c) 1994-2018
                       Pacific Northwest National Laboratory
                            Battelle Memorial Institute

             NWChem is an open-source computational chemistry package
                        distributed under the terms of the
                      Educational Community License (ECL) 2.0
             A copy of the license is included with this distribution
                              in the LICENSE.TXT file

                                  ACKNOWLEDGMENT
                                  --------------

            This software and its documentation were developed at the
            EMSL at Pacific Northwest National Laboratory, a multiprogram
            national laboratory, operated for the U.S. Department of Energy
            by Battelle under Contract Number DE-AC05-76RL01830. Support
            for this work was provided by the Department of Energy Office
            of Biological and Environmental Research, Office of Basic
            Energy Sciences, and the Office of Advanced Scientific Computing.


           Job information
           ---------------

    hostname        = login00
    program         = nwchem
    date            = Thu Jul 22 15:09:39 2021

    compiled        = Mon_Jun_22_16:48:09_2020
    source          = /opt/shared/nwchem/6.8.1/src
    nwchem branch   = Development
    nwchem revision = N/A
    ga revision     = 5.6.5
    use scalapack   = F
    input           = nwc.nw
    prefix          = nwc.
    data base       = /work/akanane/users/akanane/Relativistic/GA/parallel/ccpvdz_f/nwc.db
    status          = restart
    nproc           =        1
    time left       =     -1s



           Memory information
           ------------------

    heap     = 1048575998 doubles =   8000.0 Mbytes
    stack    = 1048575995 doubles =   8000.0 Mbytes
    global   = 2097152000 doubles =  16000.0 Mbytes (distinct from heap & stack)
    total    = 4194303993 doubles =  32000.0 Mbytes
    verify   = yes
    hardfail = no 


           Directory information
           ---------------------

  0 permanent = /work/akanane/users/akanane/Relativistic/GA/parallel/ccpvdz_f
  0 scratch   = /lustre/scratch/akanane/nwchem/1


           Previous task information
           -------------------------

    Theory    = sodft                           
    Operation =                               
    Status    = ok                            
    Qmmm      = F
    Ignore    = F


           Geometries in the database
           --------------------------

       Name                              Natoms  Last Modified
       --------------------------------  ------  ------------------------
    1  geometry                               1  Thu Jul 22 15:03:42 2021  

  The geometry named "geometry" is the default for restart



           Basis sets in the database
           --------------------------

       Name                              Natoms  Last Modified
        --------------------------------  ------  ------------------------
    1  ao basis                               1  Thu Jul 22 15:03:42 2021  
    2  ecp basis                              1  Thu Jul 22 15:03:42 2021  
    3  so potential                           1  Thu Jul 22 15:03:42 2021  

  The basis set named "ao basis" is the default AO basis for restart




                                NWChem Input Module
                                -------------------


  library name resolved from: environment
  library file name is: </opt/shared/nwchem/6.8.1/data/libraries/>
  
                      Basis "ao basis" -> "" (spherical)
                      -----
  At (Astatine)
  -------------
            Exponent  Coefficients 
       -------------- ---------------------------------------------------------
  1 S  3.24597221E+01  1.000000

  2 S  1.65767316E+01  1.000000

  3 S  8.46550778E+00  1.000000

  4 S  4.32321786E+00  1.000000

  5 S  2.20780763E+00  1.000000

  6 S  1.12749685E+00  1.000000

  7 S  5.75797064E-01  1.000000

  8 S  2.94051605E-01  1.000000

  9 S  1.50168092E-01  1.000000

 10 S  7.66887697E-02  1.000000

 11 S  3.91638951E-02  1.000000

 12 S  2.00004601E-02  1.000000

 13 P  1.65767316E+01  1.000000

 14 P  8.46550778E+00  1.000000

 15 P  4.32321786E+00  1.000000

 16 P  2.20780763E+00  1.000000

 17 P  1.12749685E+00  1.000000

 18 P  5.75797064E-01  1.000000

 19 P  2.94051605E-01  1.000000

 20 P  1.50168092E-01  1.000000

 21 P  7.66887697E-02  1.000000

 22 P  3.91638951E-02  1.000000

 23 P  2.00004601E-02  1.000000

 24 D  1.65767316E+01  1.000000

 25 D  8.46550778E+00  1.000000

 26 D  4.32321786E+00  1.000000

 27 D  2.20780763E+00  1.000000

 28 D  1.12749685E+00  1.000000

 29 D  5.75797064E-01  1.000000

 30 D  2.94051605E-01  1.000000

 31 D  1.50168092E-01  1.000000

 32 D  7.66887697E-02  1.000000

 33 D  3.91638951E-02  1.000000

 34 F  4.32321786E+00  1.000000

 35 F  2.20780763E+00  1.000000

 36 F  1.12749685E+00  1.000000

 37 F  5.75797064E-01  1.000000

 38 F  2.94051605E-01  1.000000

 39 F  1.50168092E-01  1.000000

 40 G  2.20780763E+00  1.000000

 41 G  1.12749685E+00  1.000000

 42 G  5.75797064E-01  1.000000

 43 G  2.94051605E-01  1.000000



 Summary of "ao basis" -> "" (spherical)
 ------------------------------------------------------------------------------
       Tag                 Description            Shells   Functions and Types
 ---------------- ------------------------------  ------  ---------------------
 At                      user specified             43      173   12s11p10d6f4g


  library name resolved from: environment
  library file name is: </opt/shared/nwchem/6.8.1/data/libraries/>
  
                 ECP       "ecp basis" -> "" (cartesian)
                -----
  At (Astatine) Replaces    60 electrons
  --------------------------------------
             Channel    R-exponent     Exponent     Coefficients
         ------------ ---------------------------------------------------------
  1 U L       Both         0.00      525.754846      -0.173059
  1 U L       Both         1.00     2395.715850      -2.276906
  1 U L       Both         1.00      278.392187      -3.857969
  1 U L       Both         1.00       61.458962     -36.770662
  1 U L       Both         1.00       44.129376      37.601009
  1 U L       Both         1.00       31.359815     -23.238699
  1 U L       Both         1.00       11.620573     -16.176532
  1 U L       Both         1.00        4.446625      -3.261971
  1 U L       Both         1.00        2.935632       0.180132
  1 U L       Both         1.00        1.910251      -0.146253
  1 U L       Both         1.00        0.178868      -0.000306
  1 U L       Both         1.00        0.018768      -0.000022
  1 U L       Both         1.00        0.009761      -0.000001

  2 U-s       Both         0.00       78.594234      10.173059
  2 U-s       Both         1.00       20.707609      53.132769
  2 U-s       Both         2.00       45.167107     915.704248
  2 U-s       Both         2.00       30.243749   -1411.543382
  2 U-s       Both         2.00       20.306371    1849.067583
  2 U-s       Both         2.00       13.560689   -1518.357864
  2 U-s       Both         2.00        8.557058    1106.328043
  2 U-s       Both         2.00        5.419636    -461.892244
  2 U-s       Both         2.00        3.516909     198.105995
  2 U-s       Both         2.00        2.287714     -81.896353
  2 U-s       Both         2.00        1.492833      32.227905
  2 U-s       Both         2.00        0.974359     -11.458592
  2 U-s       Both         2.00        0.633560       3.370887
  2 U-s       Both         2.00        0.410317      -0.726005
  2 U-s       Both         2.00        0.263860       0.084087

  3 U-p       Both         0.00       77.044856       9.173059
  3 U-p       Both         1.00      208.029432     -11.921411
  3 U-p       Both         1.00       28.036479      67.690912
  3 U-p       Both         2.00       39.868030     362.644345
  3 U-p       Both         2.00       26.002305    -582.208229
  3 U-p       Both         2.00       15.965542    1135.430155
  3 U-p       Both         2.00       11.089072   -1255.187511
  3 U-p       Both         2.00        8.084023     873.528658
  3 U-p       Both         2.00        5.150690    -147.543640
  3 U-p       Both         2.00        2.818771      20.737280
  3 U-p       Both         2.00        1.590819      -4.949674
  3 U-p       Both         2.00        0.878982       1.224799
  3 U-p       Both         2.00        0.479414      -0.318322
  3 U-p       Both         2.00        0.264399       0.075196
  3 U-p       Both         2.00        0.157424      -0.011770

  4 U-d       Both         0.00       30.117728       7.173059
  4 U-d       Both         1.00        9.540744     223.203571
  4 U-d       Both         1.00        5.932081    -532.676982
  4 U-d       Both         1.00        3.279986     364.117347
  4 U-d       Both         2.00        6.384402     470.098427
  4 U-d       Both         2.00        3.591978    -476.290215
  4 U-d       Both         2.00        1.790367       1.447964
  4 U-d       Both         2.00        0.921766      -0.463077
  4 U-d       Both         2.00        0.485962       0.163733
  4 U-d       Both         2.00        0.266420      -0.069600
  4 U-d       Both         2.00        0.150370       0.031881
  4 U-d       Both         2.00        0.090090      -0.013071
  4 U-d       Both         2.00        0.051240       0.003831
  4 U-d       Both         2.00        0.029281      -0.000895
  4 U-d       Both         2.00        0.016722       0.000119

  5 U-f       Both         0.00        0.891112       4.173059
  5 U-f       Both         1.00       18.356496      62.551914
  5 U-f       Both         2.00    32873.554569    1035.415119
  5 U-f       Both         2.00     3063.446789     192.725071
  5 U-f       Both         2.00       31.894642    -183.984679
  5 U-f       Both         2.00        4.214026      69.570454
  5 U-f       Both         2.00        1.887936    -131.986631
  5 U-f       Both         2.00        1.332761     223.444177
  5 U-f       Both         2.00        0.873304    -167.865396
  5 U-f       Both         2.00        0.632167      71.630825
  5 U-f       Both         2.00        0.438045     -11.215886
  5 U-f       Both         2.00        0.261926       0.470906
  5 U-f       Both         2.00        0.174510       0.000847

  library name resolved from: environment
  library file name is: </opt/shared/nwchem/6.8.1/data/libraries/>
  

 **** WARNING Zero Coefficient **** on atom "              At"
 angular momentum value: 1  standard basis set name: "user specified"
 input line that generated warning:
   176: 0	7.704485637704510E+01		0.000000000000000E+00
  

 **** WARNING Zero Coefficient **** on atom "              At"
 angular momentum value: 2  standard basis set name: "user specified"
 input line that generated warning:
   192: 0	3.011772828438610E+01		0.000000000000000E+00
  

 **** WARNING Zero Coefficient **** on atom "              At"
 angular momentum value: 3  standard basis set name: "user specified"
 input line that generated warning:
   208: 0	8.911119625038520E-01		0.000000000000000E+00
  

 **** WARNING Zero Coefficient **** on atom "              At"
 angular momentum value: 4  standard basis set name: "user specified"
 input line that generated warning:
   222: 0	5.257548462769590E+02		0.000000000000000E+00
  
             SO Potential "so potential" -> ""
                      -----
  At (Astatine)
  -------------
          R-exponent    Exponent     Coefficients 
         ------------ ------------------------------------------------------------
  1 U-p      1.00      208.029432       2.561177
  1 U-p      1.00       28.036479      -1.650544
  1 U-p      2.00       39.868030      77.307362
  1 U-p      2.00       26.002305    -118.585980
  1 U-p      2.00       15.965542     138.579485
  1 U-p      2.00       11.089072     -52.715330
  1 U-p      2.00        8.084023     -58.916702
  1 U-p      2.00        5.150690      62.873440
  1 U-p      2.00        2.818771     -15.889430
  1 U-p      2.00        1.590819       4.843922
  1 U-p      2.00        0.878982      -1.405982
  1 U-p      2.00        0.479414       0.390801
  1 U-p      2.00        0.264399      -0.095951
  1 U-p      2.00        0.157424       0.015456

  2 U-d      1.00        9.540744       1.612834
  2 U-d      1.00        5.932081      -1.350383
  2 U-d      1.00        3.279986      -0.287663
  2 U-d      2.00        6.384402      -1.664264
  2 U-d      2.00        3.591978       4.036069
  2 U-d      2.00        1.790367      -0.890782
  2 U-d      2.00        0.921766       0.301059
  2 U-d      2.00        0.485962      -0.123316
  2 U-d      2.00        0.266420       0.057045
  2 U-d      2.00        0.150370      -0.027051
  2 U-d      2.00        0.090090       0.011366
  2 U-d      2.00        0.051240      -0.003367
  2 U-d      2.00        0.029281       0.000795
  2 U-d      2.00        0.016722      -0.000104

  3 U-f      1.00       18.356496      -0.000643
  3 U-f      2.00    32873.554569       0.834481
  3 U-f      2.00     3063.446789       0.273486
  3 U-f      2.00       31.894642       0.160633
  3 U-f      2.00        4.214026      -0.068824
  3 U-f      2.00        1.887936       0.022494
  3 U-f      2.00        1.332761      -0.174753
  3 U-f      2.00        0.873304       0.160803
  3 U-f      2.00        0.632167       0.036072
  3 U-f      2.00        0.438045      -0.065269
  3 U-f      2.00        0.261926       0.016437
  3 U-f      2.00        0.174510      -0.002626

  4 U-g      1.00     2395.715850      -1.527919
  4 U-g      1.00      278.392187      -3.033005
  4 U-g      1.00       61.458962       2.574144
  4 U-g      1.00       44.129376      -2.630667
  4 U-g      1.00       31.359815       1.110494
  4 U-g      1.00       11.620573      -0.051219
  4 U-g      1.00        4.446625       0.042132
  4 U-g      1.00        2.935632      -0.036158
  4 U-g      1.00        1.910251       0.008870
  4 U-g      1.00        0.178868       0.000099
  4 U-g      1.00        0.018768       0.000004
  4 U-g      1.00        0.009761      -0.000000

                                        At
                                        --

 Scaling coordinates for geometry "geometry" by  1.889725989
 (inverse scale =  0.529177249)



                             Geometry "geometry" -> ""
                             -------------------------

 Output coordinates in angstroms (scale by  1.889725989 to convert to a.u.)

  No.       Tag          Charge          X              Y              Z
 ---- ---------------- ---------- -------------- -------------- --------------
    1 At                  85.0000     0.00000000     0.00000000     0.00000000

      Atomic Mass 
      ----------- 

      At               210.987500


 Effective nuclear repulsion energy (a.u.)       0.0000000000

            Nuclear Dipole moment (a.u.) 
            ----------------------------
        X                 Y               Z
 ---------------- ---------------- ----------------
     0.0000000000     0.0000000000     0.0000000000


            XYZ format geometry
            -------------------
     1
 geometry
 At                    0.00000000     0.00000000     0.00000000


                                 NWChem DFT Module
                                 -----------------


                                        At




 Summary of "ao basis" -> "ao basis" (spherical)
 ------------------------------------------------------------------------------
       Tag                 Description            Shells   Functions and Types
 ---------------- ------------------------------  ------  ---------------------
 At                      user specified             43      173   12s11p10d6f4g


                                  Spin-Orbit DFT
                                  --------------



  The DFT is already converged 

         Total DFT energy =   -263.036836440244


 Task  times  cpu:        0.0s     wall:        0.0s
 Summary of allocated global arrays
-----------------------------------
  No active global arrays



                         GA Statistics for process    0
                         ------------------------------

       create   destroy   get      put      acc     scatter   gather  read&inc
calls:    0        0        0        0        0        0        0        0     
number of processes/call 0.00e+00 0.00e+00 0.00e+00 0.00e+00 0.00e+00
bytes total:             0.00e+00 0.00e+00 0.00e+00 0.00e+00 0.00e+00 0.00e+00
bytes remote:            0.00e+00 0.00e+00 0.00e+00 0.00e+00 0.00e+00 0.00e+00
Max memory consumed for GA by this process: 0 bytes
MA_summarize_allocated_blocks: starting scan ...
MA_summarize_allocated_blocks: scan completed: 0 heap blocks, 0 stack blocks
MA usage statistics:

	allocation statistics:
					      heap	     stack
					      ----	     -----
	current number of blocks	         0	         0
	maximum number of blocks	        19	         4
	current total bytes		         0	         0
	maximum total bytes		     80120	       504
	maximum total K-bytes		        81	         1
	maximum total M-bytes		         1	         1


                                NWChem Input Module
                                -------------------





                                     CITATION
                                     --------
                Please cite the following reference when publishing
                           results obtained with NWChem:

                 M. Valiev, E.J. Bylaska, N. Govind, K. Kowalski,
              T.P. Straatsma, H.J.J. van Dam, D. Wang, J. Nieplocha,
                        E. Apra, T.L. Windus, W.A. de Jong
                 "NWChem: a comprehensive and scalable open-source
                  solution for large scale molecular simulations"
                      Comput. Phys. Commun. 181, 1477 (2010)
                           doi:10.1016/j.cpc.2010.04.018

                                      AUTHORS
                                      -------
          E. Apra, E. J. Bylaska, W. A. de Jong, N. Govind, K. Kowalski,
       T. P. Straatsma, M. Valiev, H. J. J. van Dam, D. Wang, T. L. Windus,
        J. Hammond, J. Autschbach, K. Bhaskaran-Nair, J. Brabec, K. Lopata,
    S. A. Fischer, S. Krishnamoorthy, M. Jacquelin, W. Ma, M. Klemm, O. Villa,
      Y. Chen, V. Anisimov, F. Aquino, S. Hirata, M. T. Hackler, V. Konjkov,
            D. Mejia-Rodriguez, T. Risthaus, M. Malagoli, A. Marenich,
   A. Otero-de-la-Roza, J. Mullin, P. Nichols, R. Peverati, J. Pittner, Y. Zhao,
        P.-D. Fan, A. Fonari, M. J. Williamson, R. J. Harrison, J. R. Rehr,
      M. Dupuis, D. Silverstein, D. M. A. Smith, J. Nieplocha, V. Tipparaju,
    M. Krishnan, B. E. Van Kuiken, A. Vazquez-Mayagoitia, L. Jensen, M. Swart,
      Q. Wu, T. Van Voorhis, A. A. Auer, M. Nooijen, L. D. Crosby, E. Brown,
      G. Cisneros, G. I. Fann, H. Fruchtl, J. Garza, K. Hirao, R. A. Kendall,
      J. A. Nichols, K. Tsemekhman, K. Wolinski, J. Anchell, D. E. Bernholdt,
      P. Borowski, T. Clark, D. Clerc, H. Dachsel, M. J. O. Deegan, K. Dyall,
    D. Elwood, E. Glendening, M. Gutowski, A. C. Hess, J. Jaffe, B. G. Johnson,
     J. Ju, R. Kobayashi, R. Kutteh, Z. Lin, R. Littlefield, X. Long, B. Meng,
      T. Nakajima, S. Niu, L. Pollack, M. Rosing, K. Glaesemann, G. Sandrone,
      M. Stave, H. Taylor, G. Thomas, J. H. van Lenthe, A. T. Wong, Z. Zhang.

 Total times  cpu:        0.0s     wall:        2.4s
