 argument  1 = nwcat2.nw
                                         
                                         


              Northwest Computational Chemistry Package (NWChem) 6.8
              ------------------------------------------------------


                    Environmental Molecular Sciences Laboratory
                       Pacific Northwest National Laboratory
                                Richland, WA 99352

                              Copyright (c) 1994-2018
                       Pacific Northwest National Laboratory
                            Battelle Memorial Institute

             NWChem is an open-source computational chemistry package
                        distributed under the terms of the
                      Educational Community License (ECL) 2.0
             A copy of the license is included with this distribution
                              in the LICENSE.TXT file

                                  ACKNOWLEDGMENT
                                  --------------

            This software and its documentation were developed at the
            EMSL at Pacific Northwest National Laboratory, a multiprogram
            national laboratory, operated for the U.S. Department of Energy
            by Battelle under Contract Number DE-AC05-76RL01830. Support
            for this work was provided by the Department of Energy Office
            of Biological and Environmental Research, Office of Basic
            Energy Sciences, and the Office of Advanced Scientific Computing.


           Job information
           ---------------

    hostname        = r04n62.localdomain.hpc.udel.edu
    program         = nwchem
    date            = Sun Aug  1 15:29:34 2021

    compiled        = Mon_Jun_22_16:48:09_2020
    source          = /opt/shared/nwchem/6.8.1/src
    nwchem branch   = Development
    nwchem revision = N/A
    ga revision     = 5.6.5
    use scalapack   = F
    input           = nwcat2.nw
    prefix          = nwcat2.
    data base       = /work/akanane/users/kennet/GA/parallel/ga_at/nwcat2.db
    status          = startup
    nproc           =        1
    time left       =     -1s



           Memory information
           ------------------

    heap     = 1048575996 doubles =   8000.0 Mbytes
    stack    = 1048576001 doubles =   8000.0 Mbytes
    global   = 2097152000 doubles =  16000.0 Mbytes (distinct from heap & stack)
    total    = 4194303997 doubles =  32000.0 Mbytes
    verify   = yes
    hardfail = no 


           Directory information
           ---------------------

  0 permanent = /work/akanane/users/kennet/GA/parallel/ga_at
  0 scratch   = /work/akanane/users/kennet/GA/parallel/ga_at/tmp2




                                NWChem Input Module
                                -------------------


  library name resolved from: environment
  library file name is: </opt/shared/nwchem/6.8.1/data/libraries/>
  
                      Basis "ao basis" -> "" (spherical)
                      -----
  At (Astatine)
  -------------
            Exponent  Coefficients 
       -------------- ---------------------------------------------------------
  1 S  3.24597221E+01  1.000000

  2 S  1.65767316E+01  1.000000

  3 S  8.46550780E+00  1.000000

  4 S  4.32321790E+00  1.000000

  5 S  2.20780760E+00  1.000000

  6 S  1.13152820E+00  1.000000

  7 S  5.75797100E-01  1.000000

  8 S  2.94051600E-01  1.000000

  9 S  1.50168100E-01  1.000000

 10 S  7.66888000E-02  1.000000

 11 S  3.91639000E-02  1.000000

 12 S  2.01060000E-02  1.000000

 13 P  1.65767316E+01  1.000000

 14 P  8.46550780E+00  1.000000

 15 P  4.32321790E+00  1.000000

 16 P  2.20780760E+00  1.000000

 17 P  1.12749690E+00  1.000000

 18 P  5.75797100E-01  1.000000

 19 P  2.94051600E-01  1.000000

 20 P  1.50168100E-01  1.000000

 21 P  7.66888000E-02  1.000000

 22 P  3.91639000E-02  1.000000

 23 P  2.00005000E-02  1.000000

 24 D  1.65767316E+01  1.000000

 25 D  8.46550780E+00  1.000000

 26 D  4.32321790E+00  1.000000

 27 D  2.20780760E+00  1.000000

 28 D  1.12749690E+00  1.000000

 29 D  5.75797100E-01  1.000000

 30 D  2.94051600E-01  1.000000

 31 D  1.50168100E-01  1.000000

 32 D  7.66888000E-02  1.000000

 33 D  3.91639000E-02  1.000000

 34 F  4.32321790E+00  1.000000

 35 F  2.20780760E+00  1.000000

 36 F  1.12749690E+00  1.000000

 37 F  5.75797100E-01  1.000000

 38 F  2.94051600E-01  1.000000

 39 F  1.50168100E-01  1.000000

 40 G  2.20780760E+00  1.000000

 41 G  1.12749690E+00  1.000000

 42 G  5.75797100E-01  1.000000

 43 G  2.94051600E-01  1.000000



 Summary of "ao basis" -> "" (spherical)
 ------------------------------------------------------------------------------
       Tag                 Description            Shells   Functions and Types
 ---------------- ------------------------------  ------  ---------------------
 At                      user specified             43      173   12s11p10d6f4g


  library name resolved from: environment
  library file name is: </opt/shared/nwchem/6.8.1/data/libraries/>
  
                 ECP       "ecp basis" -> "" (cartesian)
                -----
  At (Astatine) Replaces    60 electrons
  --------------------------------------
             Channel    R-exponent     Exponent     Coefficients
         ------------ ---------------------------------------------------------
  1 U L       Both         0.00      525.754846      -0.173059
  1 U L       Both         1.00     2395.715850      -2.276906
  1 U L       Both         1.00      278.392187      -3.857969
  1 U L       Both         1.00       61.458962     -36.770662
  1 U L       Both         1.00       44.129376      37.601009
  1 U L       Both         1.00       31.359815     -23.238699
  1 U L       Both         1.00       11.620573     -16.176532
  1 U L       Both         1.00        4.446625      -3.261971
  1 U L       Both         1.00        2.935632       0.180132
  1 U L       Both         1.00        1.910251      -0.146253
  1 U L       Both         1.00        0.178868      -0.000306
  1 U L       Both         1.00        0.018768      -0.000022
  1 U L       Both         1.00        0.009761      -0.000001

  2 U-s       Both         0.00       78.594234      10.173059
  2 U-s       Both         1.00       20.707609      53.132769
  2 U-s       Both         2.00       45.167107     915.704248
  2 U-s       Both         2.00       30.243749   -1411.543382
  2 U-s       Both         2.00       20.306371    1849.067583
  2 U-s       Both         2.00       13.560689   -1518.357864
  2 U-s       Both         2.00        8.557058    1106.328043
  2 U-s       Both         2.00        5.419636    -461.892244
  2 U-s       Both         2.00        3.516909     198.105995
  2 U-s       Both         2.00        2.287714     -81.896353
  2 U-s       Both         2.00        1.492833      32.227905
  2 U-s       Both         2.00        0.974359     -11.458592
  2 U-s       Both         2.00        0.633560       3.370887
  2 U-s       Both         2.00        0.410317      -0.726005
  2 U-s       Both         2.00        0.263860       0.084087

  3 U-p       Both         0.00       77.044856       9.173059
  3 U-p       Both         1.00      208.029432     -11.921411
  3 U-p       Both         1.00       28.036479      67.690912
  3 U-p       Both         2.00       39.868030     362.644345
  3 U-p       Both         2.00       26.002305    -582.208229
  3 U-p       Both         2.00       15.965542    1135.430155
  3 U-p       Both         2.00       11.089072   -1255.187511
  3 U-p       Both         2.00        8.084023     873.528658
  3 U-p       Both         2.00        5.150690    -147.543640
  3 U-p       Both         2.00        2.818771      20.737280
  3 U-p       Both         2.00        1.590819      -4.949674
  3 U-p       Both         2.00        0.878982       1.224799
  3 U-p       Both         2.00        0.479414      -0.318322
  3 U-p       Both         2.00        0.264399       0.075196
  3 U-p       Both         2.00        0.157424      -0.011770

  4 U-d       Both         0.00       30.117728       7.173059
  4 U-d       Both         1.00        9.540744     223.203571
  4 U-d       Both         1.00        5.932081    -532.676982
  4 U-d       Both         1.00        3.279986     364.117347
  4 U-d       Both         2.00        6.384402     470.098427
  4 U-d       Both         2.00        3.591978    -476.290215
  4 U-d       Both         2.00        1.790367       1.447964
  4 U-d       Both         2.00        0.921766      -0.463077
  4 U-d       Both         2.00        0.485962       0.163733
  4 U-d       Both         2.00        0.266420      -0.069600
  4 U-d       Both         2.00        0.150370       0.031881
  4 U-d       Both         2.00        0.090090      -0.013071
  4 U-d       Both         2.00        0.051240       0.003831
  4 U-d       Both         2.00        0.029281      -0.000895
  4 U-d       Both         2.00        0.016722       0.000119

  5 U-f       Both         0.00        0.891112       4.173059
  5 U-f       Both         1.00       18.356496      62.551914
  5 U-f       Both         2.00    32873.554569    1035.415119
  5 U-f       Both         2.00     3063.446789     192.725071
  5 U-f       Both         2.00       31.894642    -183.984679
  5 U-f       Both         2.00        4.214026      69.570454
  5 U-f       Both         2.00        1.887936    -131.986631
  5 U-f       Both         2.00        1.332761     223.444177
  5 U-f       Both         2.00        0.873304    -167.865396
  5 U-f       Both         2.00        0.632167      71.630825
  5 U-f       Both         2.00        0.438045     -11.215886
  5 U-f       Both         2.00        0.261926       0.470906
  5 U-f       Both         2.00        0.174510       0.000847

  library name resolved from: environment
  library file name is: </opt/shared/nwchem/6.8.1/data/libraries/>
  

 **** WARNING Zero Coefficient **** on atom "              At"
 angular momentum value: 1  standard basis set name: "user specified"
 input line that generated warning:
   176: 0       7.704485637704510E+01           0.000000000000000E+00
  

 **** WARNING Zero Coefficient **** on atom "              At"
 angular momentum value: 2  standard basis set name: "user specified"
 input line that generated warning:
   192: 0       3.011772828438610E+01           0.000000000000000E+00
  

 **** WARNING Zero Coefficient **** on atom "              At"
 angular momentum value: 3  standard basis set name: "user specified"
 input line that generated warning:
   208: 0       8.911119625038520E-01           0.000000000000000E+00
  

 **** WARNING Zero Coefficient **** on atom "              At"
 angular momentum value: 4  standard basis set name: "user specified"
 input line that generated warning:
   222: 0       5.257548462769590E+02           0.000000000000000E+00
  
             SO Potential "so potential" -> ""
                      -----
  At (Astatine)
  -------------
          R-exponent    Exponent     Coefficients 
         ------------ ------------------------------------------------------------
  1 U-p      1.00      208.029432       2.561177
  1 U-p      1.00       28.036479      -1.650544
  1 U-p      2.00       39.868030      77.307362
  1 U-p      2.00       26.002305    -118.585980
  1 U-p      2.00       15.965542     138.579485
  1 U-p      2.00       11.089072     -52.715330
  1 U-p      2.00        8.084023     -58.916702
  1 U-p      2.00        5.150690      62.873440
  1 U-p      2.00        2.818771     -15.889430
  1 U-p      2.00        1.590819       4.843922
  1 U-p      2.00        0.878982      -1.405982
  1 U-p      2.00        0.479414       0.390801
  1 U-p      2.00        0.264399      -0.095951
  1 U-p      2.00        0.157424       0.015456

  2 U-d      1.00        9.540744       1.612834
  2 U-d      1.00        5.932081      -1.350383
  2 U-d      1.00        3.279986      -0.287663
  2 U-d      2.00        6.384402      -1.664264
  2 U-d      2.00        3.591978       4.036069
  2 U-d      2.00        1.790367      -0.890782
  2 U-d      2.00        0.921766       0.301059
  2 U-d      2.00        0.485962      -0.123316
  2 U-d      2.00        0.266420       0.057045
  2 U-d      2.00        0.150370      -0.027051
  2 U-d      2.00        0.090090       0.011366
  2 U-d      2.00        0.051240      -0.003367
  2 U-d      2.00        0.029281       0.000795
  2 U-d      2.00        0.016722      -0.000104

  3 U-f      1.00       18.356496      -0.000643
  3 U-f      2.00    32873.554569       0.834481
  3 U-f      2.00     3063.446789       0.273486
  3 U-f      2.00       31.894642       0.160633
  3 U-f      2.00        4.214026      -0.068824
  3 U-f      2.00        1.887936       0.022494
  3 U-f      2.00        1.332761      -0.174753
  3 U-f      2.00        0.873304       0.160803
  3 U-f      2.00        0.632167       0.036072
  3 U-f      2.00        0.438045      -0.065269
  3 U-f      2.00        0.261926       0.016437
  3 U-f      2.00        0.174510      -0.002626

  4 U-g      1.00     2395.715850      -1.527919
  4 U-g      1.00      278.392187      -3.033005
  4 U-g      1.00       61.458962       2.574144
  4 U-g      1.00       44.129376      -2.630667
  4 U-g      1.00       31.359815       1.110494
  4 U-g      1.00       11.620573      -0.051219
  4 U-g      1.00        4.446625       0.042132
  4 U-g      1.00        2.935632      -0.036158
  4 U-g      1.00        1.910251       0.008870
  4 U-g      1.00        0.178868       0.000099
  4 U-g      1.00        0.018768       0.000004
  4 U-g      1.00        0.009761      -0.000000

                                   At2_2.978428
                                   ------------

 Scaling coordinates for geometry "geometry" by  1.889725989
 (inverse scale =  0.529177249)

 Turning off AUTOSYM since
 SYMMETRY directive was detected!


          ------
          auto-z
          ------
  no constraints, skipping    0.0000000000000000     
  no constraints, skipping    0.0000000000000000     


                             Geometry "geometry" -> ""
                             -------------------------

 Output coordinates in angstroms (scale by  1.889725989 to convert to a.u.)

  No.       Tag          Charge          X              Y              Z
 ---- ---------------- ---------- -------------- -------------- --------------
    1 At                  85.0000     0.00000000     0.00000000    -1.48921400
    2 At                  85.0000     0.00000000     0.00000000     1.48921400

      Atomic Mass 
      ----------- 

      At               210.987500


 Effective nuclear repulsion energy (a.u.)    1283.6656195895

            Nuclear Dipole moment (a.u.) 
            ----------------------------
        X                 Y               Z
 ---------------- ---------------- ----------------
     0.0000000000     0.0000000000     0.0000000000



                                Z-matrix (autoz)
                                -------- 

 Units are Angstrom for bonds and degrees for angles

      Type          Name      I     J     K     L     M      Value
      ----------- --------  ----- ----- ----- ----- ----- ----------
    1 Stretch                  1     2                       2.97843


            XYZ format geometry
            -------------------
     2
 geometry
 At                    0.00000000     0.00000000    -1.48921400
 At                    0.00000000     0.00000000     1.48921400

 ==============================================================================
                                internuclear distances
 ------------------------------------------------------------------------------
       center one      |      center two      | atomic units |  angstroms
 ------------------------------------------------------------------------------
    2 At               |   1 At               |     5.62841  |     2.97843
 ------------------------------------------------------------------------------
                         number of included internuclear distances:          1
 ==============================================================================




                                 NWChem DFT Module
                                 -----------------


                                   At2_2.978428




 Summary of "ao basis" -> "ao basis" (spherical)
 ------------------------------------------------------------------------------
       Tag                 Description            Shells   Functions and Types
 ---------------- ------------------------------  ------  ---------------------
 At                      user specified             43      173   12s11p10d6f4g


  Caching 1-el integrals 

            General Information
            -------------------
          SCF calculation type: DFT
          Wavefunction type:  spin polarized.
          No. of atoms     :     2
          No. of electrons :    50
           Alpha electrons :    25
            Beta electrons :    25
          Charge           :     0
          Spin multiplicity:     1
          Use of symmetry is: off; symmetry adaption is: off
          Maximum number of iterations: 100
          AO basis - number of functions:   346
                     number of shells:    86
          Convergence on energy requested:  1.00D-06
          Convergence on density requested:  5.00D-06
          Convergence on gradient requested:  5.00D-06

              XC Information
              --------------
                         PBE0 Method XC Functional
                     Hartree-Fock (Exact) Exchange  0.250          
          PerdewBurkeErnzerhof Exchange Functional  0.750          
            Perdew 1991 LDA Correlation Functional  1.000 local    
           PerdewBurkeErnz. Correlation Functional  1.000 non-local

             Grid Information
             ----------------
          Grid used for XC integration:  xfine     
          Radial quadrature: Mura-Knowles        
          Angular quadrature: Lebedev. 
          Tag              B.-S. Rad. Rad. Pts. Rad. Cut. Ang. Pts.
          ---              ---------- --------- --------- ---------
          At                  1.90      205          17.0      1454
          Grid pruning is: on 
          Number of quadrature shells:   410
          Spatial weights used:  Erf1

          Convergence Information
          -----------------------
          Convergence aids based upon iterative change in 
          total energy or number of iterations. 
          Levelshifting, if invoked, occurs when the 
          HOMO/LUMO gap drops below (HL_TOL):  1.00D-02
          DIIS, if invoked, will attempt to extrapolate 
          using up to (NFOCK): 10 stored Fock matrices.

                    Damping( 0%)  Levelshifting(0.5)       DIIS
                  --------------- ------------------- ---------------
          dE  on:    start            ASAP                start   
          dE off:    2 iters        100 iters           100 iters 


      Screening Tolerance Information
      -------------------------------
          Density screening/tol_rho:  1.00D-10
          AO Gaussian exp screening on grid/accAOfunc:  14
          CD Gaussian exp screening on grid/accCDfunc:  20
          XC Gaussian exp screening on grid/accXCfunc:  20
          Schwarz screening/accCoul:  1.00D-10

 Performing spin-orbit DFT (SO-DFT) calculations
 -----------------------------------------------


      Superposition of Atomic Density Guess
      -------------------------------------

 Sum of atomic energies:        -605.30893511

      Non-variational initial energy
      ------------------------------

 Total energy =    -523.088408
 1-e energy   =   -1130.763418
 2-e energy   =     496.631272
 HOMO         =      -0.286728
 LUMO         =      -0.165594

   Time prior to 1st pass:     18.8

 Integral file          = /work/akanane/users/kennet/GA/parallel/ga_at/tmp2/nwcat2.aoints.0
 Record size in doubles =    65536    No. of integs per rec  =    32766
 Max. records in memory =        0    Max. records in file   =  4389512
 No. of bits per label  =       16    No. of bits per value  =       64


 #quartets = 5.776D+06 #integrals = 2.531D+08 #direct =  0.0% #cached =100.0%


 Grid_pts file          = /work/akanane/users/kennet/GA/parallel/ga_at/tmp2/nwcat2.gridpts.0
 Record size in doubles =  12289        No. of grid_pts per rec  =   3070
 Max. records in memory =    215        Max. recs in file   =  23385131

 Grid integrated density:          50.000002068833
 Requested integration accuracy:   0.10E-07

           Memory utilization after 1st SCF pass: 
           Heap Space remaining (MW):     1045.90          1045898452
          Stack Space remaining (MW):     1047.61          1047609180

   convergence    iter        energy       DeltaE   RMS-Dens  Diis-err    time
 ---------------- ----- ----------------- --------- --------- ---------  ------
 d= 0,ls=0.0,diis     1   -525.4231089654 -6.36D+02  2.79D-03  1.32D+01   147.2
                                                     2.79D-03  1.32D+01
 Grid integrated density:          50.000002128282
 Requested integration accuracy:   0.10E-07
 d= 0,ls=0.0,diis     2   -526.0942963120 -6.71D-01  5.68D-04  6.38D-02   174.1
                                                     5.68D-04  6.38D-02
 Grid integrated density:          50.000002097645
 Requested integration accuracy:   0.10E-07
 d= 0,ls=0.0,diis     3   -526.0939265494  3.70D-04  3.01D-04  8.78D-02   200.8
                                                     3.01D-04  8.78D-02
 Grid integrated density:          50.000002105996
 Requested integration accuracy:   0.10E-07
 d= 0,ls=0.0,diis     4   -526.1061382272 -1.22D-02  4.34D-05  7.58D-04   227.6
                                                     4.34D-05  7.58D-04
 Grid integrated density:          50.000002109118
 Requested integration accuracy:   0.10E-07
 d= 0,ls=0.0,diis     5   -526.1062803351 -1.42D-04  1.57D-05  8.92D-05   254.5
                                                     1.57D-05  8.92D-05
 Grid integrated density:          50.000002108096
 Requested integration accuracy:   0.10E-07
 d= 0,ls=0.0,diis     6   -526.1063020116 -2.17D-05  3.56D-06  3.95D-06   281.4
                                                     3.56D-06  3.95D-06
 Grid integrated density:          50.000002107985
 Requested integration accuracy:   0.10E-07
 d= 0,ls=0.0,diis     7   -526.1063037612 -1.75D-06  7.34D-07  3.47D-08   308.4
                                                     7.34D-07  3.47D-08
 Grid integrated density:          50.000002107959
 Requested integration accuracy:   0.10E-07
 d= 0,ls=0.0,diis     8   -526.1063037985 -3.73D-08  5.31D-08  1.24D-09   335.2
                                                     5.31D-08  1.24D-09
 Grid integrated density:          50.000002107965
 Requested integration accuracy:   0.10E-07


      Total SO-DFT energy =     -526.106303798732
      One electron energy =    -1132.310618172739
           Coulomb energy =      533.989758369598
    Exchange-Corr. energy =      -38.829182714408
 Nuclear repulsion energy =      111.043738718818

 Numeric. integr. density =       50.000002107965

     Total iterative time =    342.6s



                       DFT Final Molecular Orbital Analysis
                       ------------------------------------

 Vector    1  Occ=1.000000D+00  E=-7.181360D+00
              MO Center= -4.2D-10, -4.4D-10, -1.4D-03, r^2= 6.6D-01
  Bfn.         Coefficient        Function           Bfn.         Coefficient        Function  
  ----     -------------------  ------------         ----     -------------------  ------------
     5    -0.631377  -1.026621  1 At s                178     0.629314   1.023267  2 At s          
     4     0.421520   0.685393  1 At s                177    -0.420139  -0.683148  2 At s          
     7    -0.195978  -0.318661  1 At s                180     0.195409   0.317737  2 At s          
     8     0.161400   0.262436  1 At s                181    -0.161017  -0.261815  2 At s          
     9    -0.129790  -0.211039  1 At s                182     0.129531   0.210619  2 At s          

 Vector    2  Occ=1.000000D+00  E=-7.181360D+00
              MO Center=  9.7D-10, -1.4D-15, -2.8D-08, r^2= 1.4D-05
  Bfn.         Coefficient        Function           Bfn.         Coefficient        Function  
  ----     -------------------  ------------         ----     -------------------  ------------
   351     1.205233   0.000000  1 At s                524    -1.201295  -0.000000  2 At s          
   350    -0.804638  -0.000000  1 At s                523     0.802002   0.000000  2 At s          
   353     0.374102   0.000000  1 At s                526    -0.373017  -0.000000  2 At s          
   354    -0.308095  -0.000000  1 At s                527     0.307366   0.000000  2 At s          
   355     0.247755   0.000000  1 At s                528    -0.247262  -0.000000  2 At s          

 Vector    3  Occ=1.000000D+00  E=-7.181284D+00
              MO Center=  1.1D-09, -2.9D-10,  3.6D-03, r^2= 1.8D+00
  Bfn.         Coefficient        Function           Bfn.         Coefficient        Function  
  ----     -------------------  ------------         ----     -------------------  ------------
   178     1.016965   0.624641  2 At s                  5     1.013577   0.622560  1 At s          
   177    -0.680868  -0.418203  2 At s                  4    -0.678605  -0.416814  1 At s          
   180     0.280360   0.172203  2 At s                  7     0.279308   0.171557  1 At s          
   181    -0.188594  -0.115838  2 At s                  8    -0.187727  -0.115306  1 At s          
   176    -0.127805  -0.078500  2 At s                182     0.127449   0.078282  2 At s          

 Vector    4  Occ=1.000000D+00  E=-7.181284D+00
              MO Center= -1.0D-09, -1.4D-15,  3.0D-08, r^2= 1.5D-05
  Bfn.         Coefficient        Function           Bfn.         Coefficient        Function  
  ----     -------------------  ------------         ----     -------------------  ------------
   524     1.193480  -0.000000  2 At s                351     1.189504  -0.000000  1 At s          
   523    -0.799046   0.000000  2 At s                350    -0.796391   0.000000  1 At s          
   526     0.329022  -0.000000  2 At s                353     0.327787  -0.000000  1 At s          
   527    -0.221328   0.000000  2 At s                354    -0.220311   0.000000  1 At s          
   522    -0.149988   0.000000  2 At s                528     0.149571  -0.000000  2 At s          

 Vector    5  Occ=1.000000D+00  E=-5.349309D+00
              MO Center= -4.5D-07, -1.0D-11, -2.5D-02, r^2= 4.2D-01
  Bfn.         Coefficient        Function           Bfn.         Coefficient        Function  
  ----     -------------------  ------------         ----     -------------------  ------------
    24    -0.276602   0.271107  1 At pz               368    -0.272566   0.267152  1 At px         
   369    -0.267152  -0.272566  1 At py               197    -0.250856   0.245873  2 At pz         
   541    -0.247054   0.242147  2 At px               542    -0.242147  -0.247054  2 At py         
    18     0.075373  -0.073876  1 At pz               363     0.073864   0.075361  1 At py         
   362     0.075361  -0.073864  1 At px               536     0.066959   0.068316  2 At py         

 Vector    6  Occ=1.000000D+00  E=-5.349309D+00
              MO Center=  4.6D-07,  5.8D-09, -4.8D-02, r^2= 8.1D-01
  Bfn.         Coefficient        Function           Bfn.         Coefficient        Function  
  ----     -------------------  ------------         ----     -------------------  ------------
   370    -0.387277  -0.004909  1 At pz                22     0.381626   0.004837  1 At px         
    23     0.004837  -0.381626  1 At py               543    -0.351230  -0.004452  2 At pz         
   195     0.345907   0.004384  2 At px               196     0.004384  -0.345907  2 At py         
   364     0.105532   0.001338  1 At pz                17    -0.001337   0.105515  1 At py         
    16    -0.105515  -0.001337  1 At px               190    -0.001212   0.095651  2 At py         

 Vector    7  Occ=1.000000D+00  E=-5.349306D+00
              MO Center=  6.6D-07,  1.8D-09,  2.5D-02, r^2= 4.2D-01
  Bfn.         Coefficient        Function           Bfn.         Coefficient        Function  
  ----     -------------------  ------------         ----     -------------------  ------------
   197     0.275550  -0.269490  2 At pz               541     0.272972  -0.266968  2 At px         
   542     0.266968   0.272972  2 At py                24    -0.249657   0.244167  1 At pz         
   368    -0.247464   0.242022  1 At px               369    -0.242021  -0.247464  1 At py         
   191    -0.075612   0.073949  2 At pz               536    -0.073725  -0.075383  2 At py         
   535    -0.075383   0.073725  2 At px                18     0.068559  -0.067051  1 At pz         

 Vector    8  Occ=1.000000D+00  E=-5.349306D+00
              MO Center= -6.7D-07, -1.2D-08,  4.8D-02, r^2= 8.1D-01
  Bfn.         Coefficient        Function           Bfn.         Coefficient        Function  
  ----     -------------------  ------------         ----     -------------------  ------------
   543    -0.385367  -0.006669  2 At pz               195     0.381761   0.006606  2 At px         
   196     0.006606  -0.381761  2 At py               370     0.349156   0.006042  1 At pz         
    22    -0.346088  -0.005989  1 At px                23    -0.005989   0.346088  1 At py         
   537     0.105746   0.001830  2 At pz               190    -0.001824   0.105426  2 At py         
   189    -0.105426  -0.001824  2 At px               364    -0.095882  -0.001659  1 At pz         

 Vector    9  Occ=1.000000D+00  E=-4.244813D+00
              MO Center= -3.1D-08, -1.0D-09, -2.3D-03, r^2= 9.2D-01
  Bfn.         Coefficient        Function           Bfn.         Coefficient        Function  
  ----     -------------------  ------------         ----     -------------------  ------------
    24     0.368789  -0.326025  1 At pz               197    -0.367254   0.324669  2 At pz         
   368    -0.186713   0.165063  1 At px               369    -0.165063  -0.186713  1 At py         
   541     0.185941  -0.164380  2 At px               542     0.164380   0.185941  2 At py         
    21    -0.143533   0.126889  1 At pz               194     0.142935  -0.126361  2 At pz         
    27     0.126393  -0.111737  1 At pz               200    -0.125884   0.111287  2 At pz         

 Vector   10  Occ=1.000000D+00  E=-4.244813D+00
              MO Center=  3.2D-08,  1.7D-09, -1.1D-03, r^2= 4.3D-01
  Bfn.         Coefficient        Function           Bfn.         Coefficient        Function  
  ----     -------------------  ------------         ----     -------------------  ------------
   370    -0.491347  -0.029585  1 At pz               543     0.489303   0.029461  2 At pz         
    22    -0.248763  -0.014978  1 At px                23    -0.014978   0.248763  1 At py         
   195     0.247734   0.014916  2 At px               196     0.014917  -0.247734  2 At py         
   367     0.191233   0.011514  1 At pz               540    -0.190436  -0.011466  2 At pz         
   373    -0.168397  -0.010139  1 At pz               546     0.167719   0.010099  2 At pz         

 Vector   11  Occ=1.000000D+00  E=-4.244753D+00
              MO Center=  2.2D-08,  3.4D-10,  2.3D-03, r^2= 9.2D-01
  Bfn.         Coefficient        Function           Bfn.         Coefficient        Function  
  ----     -------------------  ------------         ----     -------------------  ------------
   197     0.371444  -0.330375  2 At pz                24     0.369914  -0.329014  1 At pz         
   541    -0.186923   0.166255  2 At px               542    -0.166256  -0.186922  2 At py         
   368    -0.186148   0.165566  1 At px               369    -0.165567  -0.186148  1 At py         
   194    -0.144656   0.128662  2 At pz                21    -0.144061   0.128133  1 At pz         
   200     0.123095  -0.109485  2 At pz                27     0.122571  -0.109019  1 At pz         

 Vector   12  Occ=1.000000D+00  E=-4.244753D+00
              MO Center= -2.2D-08, -1.5D-09,  1.1D-03, r^2= 4.2D-01
  Bfn.         Coefficient        Function           Bfn.         Coefficient        Function  
  ----     -------------------  ------------         ----     -------------------  ------------
   543    -0.496241  -0.029368  2 At pz               370    -0.494198  -0.029247  1 At pz         
   195    -0.249725  -0.014779  2 At px               196    -0.014779   0.249725  2 At py         
    22    -0.248690  -0.014718  1 At px                23    -0.014718   0.248690  1 At py         
   540     0.193258   0.011437  2 At pz               367     0.192463   0.011390  1 At pz         
   546    -0.164453  -0.009732  2 At pz               373    -0.163752  -0.009691  1 At pz         

 Vector   13  Occ=1.000000D+00  E=-4.237342D+00
              MO Center=  2.1D-09, -2.2D-09, -6.0D-02, r^2= 1.2D+00
  Bfn.         Coefficient        Function           Bfn.         Coefficient        Function  
  ----     -------------------  ------------         ----     -------------------  ------------
    23     0.447643   0.020669  1 At py                22     0.020669  -0.447643  1 At px         
   196     0.413150   0.019076  2 At py               195     0.019076  -0.413150  2 At px         
    20    -0.173302  -0.008002  1 At py                19    -0.008002   0.173302  1 At px         
   193    -0.159947  -0.007385  2 At py               192    -0.007385   0.159947  2 At px         
    26     0.154232   0.007121  1 At py                25     0.007121  -0.154232  1 At px         

 Vector   14  Occ=1.000000D+00  E=-4.237342D+00
              MO Center= -1.7D-09,  1.8D-09, -5.7D-07, r^2= 1.2D-05
  Bfn.         Coefficient        Function           Bfn.         Coefficient        Function  
  ----     -------------------  ------------         ----     -------------------  ------------
   369     0.297793  -0.334859  1 At py               368     0.334859   0.297794  1 At px         
   542     0.274847  -0.309057  2 At py               541     0.309057   0.274848  2 At px         
   366    -0.115289   0.129639  1 At py               365    -0.129639  -0.115289  1 At px         
   539    -0.106405   0.119649  2 At py               538    -0.119648  -0.106405  2 At px         
   372     0.102603  -0.115373  1 At py               371     0.115373   0.102603  1 At px         

 Vector   15  Occ=1.000000D+00  E=-4.237339D+00
              MO Center= -6.7D-09, -3.1D-08,  5.9D-02, r^2= 1.2D+00
  Bfn.         Coefficient        Function           Bfn.         Coefficient        Function  
  ----     -------------------  ------------         ----     -------------------  ------------
   196     0.242219  -0.377066  2 At py               195    -0.377066  -0.242218  2 At px         
    23    -0.223587   0.348062  1 At py                22     0.348062   0.223587  1 At px         
   193    -0.093783   0.145994  2 At py               192     0.145994   0.093783  2 At px         
    20     0.086570  -0.134765  1 At py                19    -0.134765  -0.086570  1 At px         
   199     0.082992  -0.129196  2 At py               198    -0.129196  -0.082992  2 At px         

 Vector   16  Occ=1.000000D+00  E=-4.237339D+00
              MO Center=  9.5D-09,  2.9D-08,  8.8D-05, r^2= 1.8D-03
  Bfn.         Coefficient        Function           Bfn.         Coefficient        Function  
  ----     -------------------  ------------         ----     -------------------  ------------
   542     0.296734  -0.335854  2 At py               541     0.335854   0.296734  2 At px         
   369    -0.273909   0.310020  1 At py               368    -0.310020  -0.273909  1 At px         
   539    -0.114890   0.130037  2 At py               538    -0.130037  -0.114890  2 At px         
   366     0.106054  -0.120035  1 At py               365     0.120035   0.106054  1 At px         
   545     0.101671  -0.115075  2 At py               544     0.115075   0.101671  2 At px         

 Vector   17  Occ=1.000000D+00  E=-1.645888D+00
              MO Center=  3.4D-10,  9.4D-11, -9.0D-05, r^2= 7.3D-01
  Bfn.         Coefficient        Function           Bfn.         Coefficient        Function  
  ----     -------------------  ------------         ----     -------------------  ------------
   409     0.214063   0.001075  1 At d  0             582     0.214019   0.001075  2 At d  0       
    64     0.177283   0.000890  1 At d  1              62    -0.000890   0.177283  1 At d -1       
   237     0.177245   0.000890  2 At d  1             235    -0.000890   0.177245  2 At d -1       
   414     0.174144   0.000874  1 At d  0             587     0.174107   0.000874  2 At d  0       
    67    -0.000719   0.143095  1 At d -1              69     0.143095   0.000718  1 At d  1       

 Vector   18  Occ=1.000000D+00  E=-1.645888D+00
              MO Center= -1.8D-09, -1.2D-09, -8.8D-05, r^2= 7.5D-01
  Bfn.         Coefficient        Function           Bfn.         Coefficient        Function  
  ----     -------------------  ------------         ----     -------------------  ------------
    63     0.175826  -0.122105  1 At d  0             236     0.175789  -0.122079  2 At d  0       
   410    -0.145616   0.101125  1 At d  1             408     0.101125   0.145616  1 At d -1       
   583    -0.145584   0.101103  2 At d  1             581     0.101103   0.145584  2 At d -1       
    68     0.143037  -0.099334  1 At d  0             241     0.143007  -0.099313  2 At d  0       
   413     0.081623   0.117534  1 At d -1             415    -0.117534   0.081623  1 At d  1       

 Vector   19  Occ=1.000000D+00  E=-1.644791D+00
              MO Center= -1.3D-10,  4.0D-11,  9.2D-05, r^2= 7.8D-01
  Bfn.         Coefficient        Function           Bfn.         Coefficient        Function  
  ----     -------------------  ------------         ----     -------------------  ------------
   582    -0.213231  -0.001007  2 At d  0             409     0.213185   0.001006  1 At d  0       
   237    -0.182915  -0.000863  2 At d  1             235     0.000863  -0.182915  2 At d -1       
    64     0.182877   0.000863  1 At d  1              62    -0.000863   0.182877  1 At d -1       
   587    -0.171316  -0.000809  2 At d  0             414     0.171279   0.000808  1 At d  0       
   240     0.000701  -0.148448  2 At d -1             242    -0.148448  -0.000701  2 At d  1       

 Vector   20  Occ=1.000000D+00  E=-1.644791D+00
              MO Center=  8.2D-11,  6.2D-10,  7.0D-05, r^2= 5.7D-01
  Bfn.         Coefficient        Function           Bfn.         Coefficient        Function  
  ----     -------------------  ------------         ----     -------------------  ------------
   236    -0.156222   0.145132  2 At d  0              63     0.156188  -0.145100  1 At d  0       
   583     0.134011  -0.124498  2 At d  1             581    -0.124498  -0.134011  2 At d -1       
   410    -0.133983   0.124472  1 At d  1             408     0.124472   0.133983  1 At d -1       
   241    -0.125513   0.116603  2 At d  0              68     0.125486  -0.116578  1 At d  0       
   586    -0.101039  -0.108759  2 At d -1             588     0.108759  -0.101038  2 At d  1       

 Vector   21  Occ=1.000000D+00  E=-1.635430D+00
              MO Center=  1.8D-09,  7.7D-09, -6.1D-04, r^2= 9.5D-01
  Bfn.         Coefficient        Function           Bfn.         Coefficient        Function  
  ----     -------------------  ------------         ----     -------------------  ------------
    61     0.117594   0.161735  1 At d -2              65    -0.161735   0.117594  1 At d  2       
   234    -0.117461  -0.161552  2 At d -2             238     0.161552  -0.117461  2 At d  2       
    70    -0.130369   0.094788  1 At d  2              66     0.094788   0.130369  1 At d -2       
   243     0.130221  -0.094681  2 At d  2             239    -0.094681  -0.130221  2 At d -2       
   410    -0.087297   0.063471  1 At d  1             408    -0.063471  -0.087297  1 At d -1       

 Vector   22  Occ=1.000000D+00  E=-1.635430D+00
              MO Center= -6.0D-09, -5.0D-09, -2.3D-04, r^2= 3.6D-01
  Bfn.         Coefficient        Function           Bfn.         Coefficient        Function  
  ----     -------------------  ------------         ----     -------------------  ------------
   407    -0.199908  -0.004847  1 At d -2             411    -0.004847   0.199908  1 At d  2       
   580     0.199682   0.004841  2 At d -2             584     0.004841  -0.199682  2 At d  2       
   416    -0.003907   0.161138  1 At d  2             412    -0.161138  -0.003907  1 At d -2       
   589     0.003902  -0.160956  2 At d  2             585     0.160956   0.003902  2 At d -2       
    64     0.002616  -0.107900  1 At d  1              62    -0.107900  -0.002616  1 At d -1       

 Vector   23  Occ=1.000000D+00  E=-1.635229D+00
              MO Center=  4.7D-10, -1.1D-08,  5.7D-04, r^2= 8.9D-01
  Bfn.         Coefficient        Function           Bfn.         Coefficient        Function  
  ----     -------------------  ------------         ----     -------------------  ------------
   234    -0.030682  -0.187738  2 At d -2             238     0.187738  -0.030682  2 At d  2       
    61    -0.030647  -0.187527  1 At d -2              65     0.187527  -0.030647  1 At d  2       
   243     0.151490  -0.024758  2 At d  2             239    -0.024758  -0.151490  2 At d -2       
    70     0.151320  -0.024730  1 At d  2              66    -0.024730  -0.151320  1 At d -2       
   581     0.016425   0.100504  2 At d -1             583     0.100504  -0.016425  2 At d  1       

 Vector   24  Occ=1.000000D+00  E=-1.635229D+00
              MO Center=  4.7D-09,  1.0D-08,  2.7D-04, r^2= 4.2D-01
  Bfn.         Coefficient        Function           Bfn.         Coefficient        Function  
  ----     -------------------  ------------         ----     -------------------  ------------
   580     0.190226  -0.001035  2 At d -2             584    -0.001035  -0.190226  2 At d  2       
   407     0.190012  -0.001034  1 At d -2             411    -0.001034  -0.190012  1 At d  2       
   589    -0.000835  -0.153497  2 At d  2             585     0.153497  -0.000835  2 At d -2       
   416    -0.000834  -0.153325  1 At d  2             412     0.153325  -0.000834  1 At d -2       
   235     0.101836  -0.000554  2 At d -1             237     0.000554   0.101836  2 At d  1       

 Vector   25  Occ=1.000000D+00  E=-1.503386D+00
              MO Center= -5.2D-10,  2.4D-11, -1.8D-05, r^2= 4.1D-01
  Bfn.         Coefficient        Function           Bfn.         Coefficient        Function  
  ----     -------------------  ------------         ----     -------------------  ------------
    63     0.122680  -0.202292  1 At d  0             236     0.122670  -0.202276  2 At d  0       
    68     0.109414  -0.180417  1 At d  0             241     0.109405  -0.180402  2 At d  0       
   410     0.075376  -0.124291  1 At d  1             408    -0.124291  -0.075376  1 At d -1       
   581    -0.124281  -0.075371  2 At d -1             583     0.075371  -0.124281  2 At d  1       
    73     0.067865  -0.111906  1 At d  0             246     0.067860  -0.111897  2 At d  0       

 Vector   26  Occ=1.000000D+00  E=-1.503386D+00
              MO Center=  5.5D-10, -1.2D-11, -2.4D-05, r^2= 5.6D-01
  Bfn.         Coefficient        Function           Bfn.         Coefficient        Function  
  ----     -------------------  ------------         ----     -------------------  ------------
   409     0.236585   0.000217  1 At d  0             582     0.236566   0.000217  2 At d  0       
   414     0.211002   0.000193  1 At d  0             587     0.210985   0.000193  2 At d  0       
    64    -0.145361  -0.000133  1 At d  1              62     0.000133  -0.145361  1 At d -1       
   235     0.000133  -0.145350  2 At d -1             237    -0.145350  -0.000133  2 At d  1       
   419     0.130876   0.000120  1 At d  0             592     0.130866   0.000120  2 At d  0       

 Vector   27  Occ=1.000000D+00  E=-1.500409D+00
              MO Center= -3.3D-11,  7.1D-11,  4.3D-06, r^2= 1.0D-01
  Bfn.         Coefficient        Function           Bfn.         Coefficient        Function  
  ----     -------------------  ------------         ----     -------------------  ------------
   236    -0.061747  -0.238747  2 At d  0              63     0.061742   0.238729  1 At d  0       
   241    -0.054432  -0.210466  2 At d  0              68     0.054428   0.210450  1 At d  0       
   583    -0.035601  -0.137655  2 At d  1             581    -0.137655   0.035602  2 At d -1       
   410     0.035598   0.137644  1 At d  1             408     0.137644  -0.035599  1 At d -1       
   246    -0.034725  -0.134265  2 At d  0              73     0.034722   0.134255  1 At d  0       

 Vector   28  Occ=1.000000D+00  E=-1.500409D+00
              MO Center= -3.8D-10, -5.8D-11,  2.4D-05, r^2= 5.3D-01
  Bfn.         Coefficient        Function           Bfn.         Coefficient        Function  
  ----     -------------------  ------------         ----     -------------------  ------------
   582     0.246603  -0.000105  2 At d  0             409    -0.246584   0.000105  1 At d  0       
   587     0.217391  -0.000093  2 At d  0             414    -0.217374   0.000093  1 At d  0       
   237    -0.142184   0.000061  2 At d  1             235    -0.000060  -0.142184  2 At d -1       
    64     0.142173  -0.000061  1 At d  1              62     0.000061   0.142173  1 At d -1       
   592     0.138683  -0.000059  2 At d  0             419    -0.138673   0.000059  1 At d  0       

 Vector   29  Occ=1.000000D+00  E=-1.497977D+00
              MO Center=  4.2D-11,  2.4D-10, -8.8D-05, r^2= 9.9D-01
  Bfn.         Coefficient        Function           Bfn.         Coefficient        Function  
  ----     -------------------  ------------         ----     -------------------  ------------
    64     0.002104   0.193152  1 At d  1              62     0.193152  -0.002103  1 At d -1       
   237    -0.002103  -0.193122  2 At d  1             235    -0.193122   0.002103  2 At d -1       
    67     0.172134  -0.001874  1 At d -1              69     0.001875   0.172134  1 At d  1       
   240    -0.172107   0.001874  2 At d -1             242    -0.001874  -0.172107  2 At d  1       
    74     0.001163   0.106751  1 At d  1              72     0.106751  -0.001162  1 At d -1       

 Vector   30  Occ=1.000000D+00  E=-1.497977D+00
              MO Center= -1.1D-10,  3.3D-10, -2.9D-05, r^2= 3.3D-01
  Bfn.         Coefficient        Function           Bfn.         Coefficient        Function  
  ----     -------------------  ------------         ----     -------------------  ------------
   410    -0.068630  -0.180561  1 At d  1             408     0.180561  -0.068630  1 At d -1       
   583     0.068619   0.180532  2 At d  1             581    -0.180532   0.068619  2 At d -1       
   413     0.160913  -0.061162  1 At d -1             415    -0.061162  -0.160913  1 At d  1       
   586    -0.160887   0.061153  2 At d -1             588     0.061152   0.160888  2 At d  1       
   420    -0.037930  -0.099792  1 At d  1             418     0.099792  -0.037930  1 At d -1       

 Vector   31  Occ=1.000000D+00  E=-1.496530D+00
              MO Center= -2.5D-10, -2.4D-10,  3.2D-05, r^2= 3.6D-01
  Bfn.         Coefficient        Function           Bfn.         Coefficient        Function  
  ----     -------------------  ------------         ----     -------------------  ------------
   583     0.074166  -0.173765  2 At d  1             581     0.173765   0.074166  2 At d -1       
   410     0.074155  -0.173737  1 At d  1             408     0.173737   0.074154  1 At d -1       
   586     0.154222   0.065825  2 At d -1             588     0.065825  -0.154222  2 At d  1       
   413     0.154198   0.065815  1 At d -1             415     0.065815  -0.154198  1 At d  1       
   593     0.041247  -0.096638  2 At d  1             591     0.096638   0.041247  2 At d -1       

 Vector   32  Occ=1.000000D+00  E=-1.496530D+00
              MO Center=  4.8D-10, -1.4D-10,  8.5D-05, r^2= 9.6D-01
  Bfn.         Coefficient        Function           Bfn.         Coefficient        Function  
  ----     -------------------  ------------         ----     -------------------  ------------
   237    -0.008151  -0.188755  2 At d  1             235    -0.188755   0.008150  2 At d -1       
    64    -0.008149  -0.188725  1 At d  1              62    -0.188725   0.008149  1 At d -1       
   240    -0.167526   0.007234  2 At d -1             242    -0.007234  -0.167526  2 At d  1       
    67    -0.167500   0.007233  1 At d -1              69    -0.007233  -0.167500  1 At d  1       
   247    -0.004533  -0.104975  2 At d  1             245    -0.104975   0.004533  2 At d -1       

 Vector   33  Occ=1.000000D+00  E=-1.488935D+00
              MO Center=  1.3D-10,  2.6D-10, -1.1D-03, r^2= 1.3D+00
  Bfn.         Coefficient        Function           Bfn.         Coefficient        Function  
  ----     -------------------  ------------         ----     -------------------  ------------
    65     0.027317   0.223444  1 At d  2              61    -0.223444   0.027317  1 At d -2       
   238     0.027278   0.223125  2 At d  2             234    -0.223125   0.027278  2 At d -2       
    70     0.024180   0.197785  1 At d  2              66    -0.197785   0.024180  1 At d -2       
   243     0.024145   0.197503  2 At d  2             239    -0.197503   0.024145  2 At d -2       
    75     0.015032   0.122956  1 At d  2              71    -0.122956   0.015032  1 At d -2       

 Vector   34  Occ=1.000000D+00  E=-1.488935D+00
              MO Center= -6.1D-10,  5.5D-11, -2.4D-06, r^2= 3.0D-03
  Bfn.         Coefficient        Function           Bfn.         Coefficient        Function  
  ----     -------------------  ------------         ----     -------------------  ------------
   411    -0.004428   0.225064  1 At d  2             407     0.225064   0.004428  1 At d -2       
   584    -0.004422   0.224743  2 At d  2             580     0.224743   0.004422  2 At d -2       
   416    -0.003920   0.199219  1 At d  2             412     0.199219   0.003920  1 At d -2       
   589    -0.003914   0.198935  2 At d  2             585     0.198935   0.003914  2 At d -2       
   421    -0.002437   0.123847  1 At d  2             417     0.123847   0.002437  1 At d -2       

 Vector   35  Occ=1.000000D+00  E=-1.488779D+00
              MO Center= -2.7D-10,  4.9D-10,  1.1D-03, r^2= 1.3D+00
  Bfn.         Coefficient        Function           Bfn.         Coefficient        Function  
  ----     -------------------  ------------         ----     -------------------  ------------
   238    -0.219295  -0.052320  2 At d  2             234     0.052320  -0.219295  2 At d -2       
    65     0.218982   0.052245  1 At d  2              61    -0.052245   0.218982  1 At d -2       
   243    -0.193960  -0.046275  2 At d  2             239     0.046275  -0.193960  2 At d -2       
    70     0.193683   0.046209  1 At d  2              66    -0.046209   0.193683  1 At d -2       
   248    -0.120847  -0.028832  2 At d  2             244     0.028832  -0.120847  2 At d -2       

 Vector   36  Occ=1.000000D+00  E=-1.488779D+00
              MO Center=  2.5D-11, -1.4D-10,  1.3D-07, r^2= 1.6D-04
  Bfn.         Coefficient        Function           Bfn.         Coefficient        Function  
  ----     -------------------  ------------         ----     -------------------  ------------
   584     0.003358  -0.225425  2 At d  2             580    -0.225425  -0.003358  2 At d -2       
   411    -0.003353   0.225103  1 At d  2             407     0.225103   0.003353  1 At d -2       
   589     0.002970  -0.199382  2 At d  2             585    -0.199382  -0.002970  2 At d -2       
   416    -0.002965   0.199097  1 At d  2             412     0.199097   0.002965  1 At d -2       
   594     0.001850  -0.124225  2 At d  2             590    -0.124225  -0.001850  2 At d -2       

 Vector   37  Occ=1.000000D+00  E=-8.005419D-01
              MO Center= -2.4D-09,  1.1D-09, -6.8D-07, r^2= 4.3D-01
  Bfn.         Coefficient        Function           Bfn.         Coefficient        Function  
  ----     -------------------  ------------         ----     -------------------  ------------
     5     0.264228  -0.650989  1 At s                178     0.264227  -0.650987  2 At s          
     8    -0.229073   0.564376  1 At s                181    -0.229071   0.564372  2 At s          
     4    -0.129495   0.319041  1 At s                177    -0.129494   0.319040  2 At s          
     6     0.069977  -0.172405  1 At s                179     0.069977  -0.172405  2 At s          
     9    -0.069896   0.172206  1 At s                182    -0.069896   0.172206  2 At s          

 Vector   38  Occ=1.000000D+00  E=-8.005419D-01
              MO Center= -6.3D-12, -9.0D-13,  1.3D-10, r^2= 2.2D-04
  Bfn.         Coefficient        Function           Bfn.         Coefficient        Function  
  ----     -------------------  ------------         ----     -------------------  ------------
   351     0.702353   0.017409  1 At s                524     0.702351   0.017409  2 At s          
   354    -0.608906  -0.015093  1 At s                527    -0.608902  -0.015093  2 At s          
   350    -0.344214  -0.008532  1 At s                523    -0.344213  -0.008532  2 At s          
   352     0.186008   0.004611  1 At s                525     0.186008   0.004611  2 At s          
   355    -0.185794  -0.004605  1 At s                528    -0.185793  -0.004605  2 At s          

 Vector   39  Occ=1.000000D+00  E=-7.524603D-01
              MO Center=  7.3D-11,  2.0D-13, -6.0D-11, r^2= 1.6D-04
  Bfn.         Coefficient        Function           Bfn.         Coefficient        Function  
  ----     -------------------  ------------         ----     -------------------  ------------
   524    -0.744254   0.000009  2 At s                351     0.744251  -0.000009  1 At s          
   527     0.712132  -0.000008  2 At s                354    -0.712130   0.000008  1 At s          
   523     0.363627  -0.000004  2 At s                350    -0.363626   0.000004  1 At s          
   530    -0.196525   0.000002  2 At s                357     0.196524  -0.000002  1 At s          
   525    -0.191282   0.000002  2 At s                352     0.191282  -0.000002  1 At s          

 Vector   40  Occ=1.000000D+00  E=-7.524603D-01
              MO Center= -3.0D-09,  1.7D-09,  8.0D-07, r^2= 6.2D-01
  Bfn.         Coefficient        Function           Bfn.         Coefficient        Function  
  ----     -------------------  ------------         ----     -------------------  ------------
   178    -0.303137   0.679722  2 At s                  5     0.303136  -0.679719  1 At s          
   181     0.290054  -0.650385  2 At s                  8    -0.290053   0.650383  1 At s          
   177     0.148107  -0.332098  2 At s                  4    -0.148106   0.332097  1 At s          
   184    -0.080045   0.179485  2 At s                 11     0.080045  -0.179484  1 At s          
   179    -0.077910   0.174696  2 At s                  6     0.077910  -0.174696  1 At s          

 Vector   41  Occ=1.000000D+00  E=-3.955809D-01
              MO Center= -2.1D-08, -6.4D-09, -1.1D-06, r^2= 1.4D+00
  Bfn.         Coefficient        Function           Bfn.         Coefficient        Function  
  ----     -------------------  ------------         ----     -------------------  ------------
    33    -0.193409   0.162997  1 At pz               206     0.193409  -0.162997  2 At pz         
    24     0.157472  -0.132710  1 At pz               197    -0.157472   0.132710  2 At pz         
   209     0.128984  -0.108702  2 At pz                36    -0.128983   0.108702  1 At pz         
   379     0.145457   0.000149  1 At pz               552    -0.145456  -0.000149  2 At pz         
   378    -0.081512  -0.096722  1 At py               377    -0.096721   0.081513  1 At px         

 Vector   42  Occ=1.000000D+00  E=-3.955809D-01
              MO Center=  2.3D-08,  4.9D-09, -1.2D-06, r^2= 8.5D-01
  Bfn.         Coefficient        Function           Bfn.         Coefficient        Function  
  ----     -------------------  ------------         ----     -------------------  ------------
   379    -0.252933  -0.000083  1 At pz               552     0.252933   0.000083  2 At pz         
   370     0.205935   0.000068  1 At pz               543    -0.205935  -0.000068  2 At pz         
   555     0.168680   0.000056  2 At pz               382    -0.168680  -0.000056  1 At pz         
    33    -0.111161   0.093814  1 At pz               206     0.111160  -0.093813  2 At pz         
    32     0.000041  -0.126489  1 At py                31     0.126488   0.000042  1 At px         

 Vector   43  Occ=1.000000D+00  E=-3.647857D-01
              MO Center=  2.6D-08, -3.1D-09,  1.0D-06, r^2= 1.4D+00
  Bfn.         Coefficient        Function           Bfn.         Coefficient        Function  
  ----     -------------------  ------------         ----     -------------------  ------------
   204    -0.197941  -0.034991  2 At px               205    -0.034990   0.197942  2 At py         
    31    -0.197941  -0.034991  1 At px                32    -0.034990   0.197941  1 At py         
   195     0.164516   0.029082  2 At px               196     0.029082  -0.164516  2 At py         
    22     0.164516   0.029082  1 At px                23     0.029082  -0.164516  1 At py         
   208    -0.024144   0.136577  2 At py               207    -0.136577  -0.024143  2 At px         

 Vector   44  Occ=1.000000D+00  E=-3.647857D-01
              MO Center= -2.0D-08,  4.5D-09,  1.3D-06, r^2= 7.1D-01
  Bfn.         Coefficient        Function           Bfn.         Coefficient        Function  
  ----     -------------------  ------------         ----     -------------------  ------------
   550    -0.188852   0.068848  2 At px               551    -0.068846  -0.188853  2 At py         
   377    -0.188852   0.068848  1 At px               378    -0.068846  -0.188852  1 At py         
   541     0.156962  -0.057221  2 At px               542     0.057221   0.156962  2 At py         
   368     0.156961  -0.057221  1 At px               369     0.057221   0.156962  1 At py         
   554    -0.047504  -0.130305  2 At py               553    -0.130306   0.047503  2 At px         

 Vector   45  Occ=1.000000D+00  E=-2.749905D-01
              MO Center=  3.7D-09, -1.9D-08, -1.8D-06, r^2= 2.1D+00
  Bfn.         Coefficient        Function           Bfn.         Coefficient        Function  
  ----     -------------------  ------------         ----     -------------------  ------------
    32    -0.198313   0.063142  1 At py                31     0.063144   0.198312  1 At px         
   205    -0.198312   0.063142  2 At py               204     0.063144   0.198312  2 At px         
    34     0.056325   0.176902  1 At px                35    -0.176902   0.056327  1 At py         
   207     0.056325   0.176902  2 At px               208    -0.176901   0.056327  2 At py         
    23     0.168718  -0.053720  1 At py                22    -0.053720  -0.168717  1 At px         

 Vector   46  Occ=1.000000D+00  E=-2.749905D-01
              MO Center= -4.9D-11, -3.3D-11, -9.1D-09, r^2= 6.9D-03
  Bfn.         Coefficient        Function           Bfn.         Coefficient        Function  
  ----     -------------------  ------------         ----     -------------------  ------------
   378     0.202605  -0.047607  1 At py               377     0.047605   0.202605  1 At px         
   551     0.202604  -0.047606  2 At py               550     0.047605   0.202604  2 At px         
   380     0.042467   0.180730  1 At px               381     0.180731  -0.042465  1 At py         
   553     0.042467   0.180730  2 At px               554     0.180730  -0.042465  2 At py         
   369    -0.172369   0.040502  1 At py               368    -0.040501  -0.172369  1 At px         

 Vector   47  Occ=1.000000D+00  E=-2.668985D-01
              MO Center= -2.5D-09, -1.7D-09, -2.9D-08, r^2= 1.9D-01
  Bfn.         Coefficient        Function           Bfn.         Coefficient        Function  
  ----     -------------------  ------------         ----     -------------------  ------------
   551    -0.195719   0.055207  2 At py               550     0.055209   0.195719  2 At px         
   378     0.195719  -0.055207  1 At py               377    -0.055209  -0.195718  1 At px         
   542     0.160171  -0.045180  2 At py               541    -0.045181  -0.160171  2 At px         
   369    -0.160171   0.045180  1 At py               368     0.045181   0.160171  1 At px         
   380    -0.041645  -0.147639  1 At px               381     0.147639  -0.041646  1 At py         

 Vector   48  Occ=1.000000D+00  E=-2.668985D-01
              MO Center=  7.6D-09,  5.8D-10,  3.2D-07, r^2= 1.5D+00
  Bfn.         Coefficient        Function           Bfn.         Coefficient        Function  
  ----     -------------------  ------------         ----     -------------------  ------------
   205     0.010747  -0.203072  2 At py               204     0.203072   0.010749  2 At px         
    32    -0.010747   0.203072  1 At py                31    -0.203072  -0.010749  1 At px         
   196    -0.008795   0.166189  2 At py               195    -0.166189  -0.008796  2 At px         
    23     0.008796  -0.166189  1 At py                22     0.166189   0.008796  1 At px         
    34    -0.153186  -0.008107  1 At px                35    -0.008108   0.153186  1 At py         

 Vector   49  Occ=1.000000D+00  E=-2.244886D-01
              MO Center= -1.2D-08, -1.4D-08,  1.7D-06, r^2= 2.5D+00
  Bfn.         Coefficient        Function           Bfn.         Coefficient        Function  
  ----     -------------------  ------------         ----     -------------------  ------------
   205    -0.193618  -0.125082  2 At py               204    -0.125081   0.193619  2 At px         
    32     0.193618   0.125082  1 At py                31     0.125080  -0.193619  1 At px         
   207    -0.106643   0.165075  2 At px               208    -0.165076  -0.106641  2 At py         
    34     0.106643  -0.165075  1 At px                35     0.165076   0.106641  1 At py         
   196     0.159430   0.102995  2 At py               195     0.102994  -0.159430  2 At px         

 Vector   50  Occ=1.000000D+00  E=-2.244886D-01
              MO Center=  5.7D-11,  2.5D-11,  1.9D-09, r^2= 3.1D-03
  Bfn.         Coefficient        Function           Bfn.         Coefficient        Function  
  ----     -------------------  ------------         ----     -------------------  ------------
   551    -0.219593   0.070088  2 At py               550    -0.070086  -0.219594  2 At px         
   378     0.219593  -0.070088  1 At py               377     0.070086   0.219593  1 At px         
   553    -0.059756  -0.187221  2 At px               554    -0.187222   0.059754  2 At py         
   380     0.059756   0.187221  1 At px               381     0.187221  -0.059754  1 At py         
   542     0.180818  -0.057712  2 At py               541     0.057711   0.180818  2 At px         

 Vector   51  Occ=0.000000D+00  E=-1.364928D-01
              MO Center= -2.5D-09, -9.5D-10,  9.6D-08, r^2= 3.3D-01
  Bfn.         Coefficient        Function           Bfn.         Coefficient        Function  
  ----     -------------------  ------------         ----     -------------------  ------------
   552     0.335039  -0.000621  2 At pz               379     0.335038  -0.000621  1 At pz         
   543    -0.258713   0.000479  2 At pz               370    -0.258712   0.000479  1 At pz         
   382     0.237343  -0.000440  1 At pz               555     0.237342  -0.000440  2 At pz         
   558     0.217786  -0.000403  2 At pz               385     0.217786  -0.000403  1 At pz         
   354     0.181601  -0.000336  1 At s                527    -0.181596   0.000336  2 At s          

 Vector   52  Occ=0.000000D+00  E=-1.364928D-01
              MO Center= -6.5D-10,  1.3D-09,  9.0D-08, r^2= 1.7D+00
  Bfn.         Coefficient        Function           Bfn.         Coefficient        Function  
  ----     -------------------  ------------         ----     -------------------  ------------
   206    -0.185605   0.278931  2 At pz                33    -0.185604   0.278930  1 At pz         
   197     0.143322  -0.215387  2 At pz                24     0.143321  -0.215386  1 At pz         
    36    -0.131483   0.197595  1 At pz               209    -0.131483   0.197595  2 At pz         
   212    -0.120649   0.181314  2 At pz                39    -0.120649   0.181314  1 At pz         
     8    -0.100603   0.151189  1 At s                181     0.100600  -0.151184  2 At s          

 Vector   53  Occ=0.000000D+00  E=-1.190366D-02
              MO Center= -1.4D-10,  4.4D-13, -2.9D-09, r^2= 6.7D-04
  Bfn.         Coefficient        Function           Bfn.         Coefficient        Function  
  ----     -------------------  ------------         ----     -------------------  ------------
   358    -1.019758   0.000065  1 At s                531    -1.019749   0.000065  2 At s          
   530     0.701906  -0.000045  2 At s                357     0.701884  -0.000045  1 At s          
   529    -0.423003   0.000027  2 At s                356    -0.422988   0.000027  1 At s          
   528     0.411809  -0.000026  2 At s                355     0.411797  -0.000026  1 At s          
   351    -0.165638   0.000011  1 At s                524    -0.165636   0.000011  2 At s          

 Vector   54  Occ=0.000000D+00  E=-1.190366D-02
              MO Center=  5.7D-08,  5.9D-08, -1.4D-06, r^2= 7.4D+00
  Bfn.         Coefficient        Function           Bfn.         Coefficient        Function  
  ----     -------------------  ------------         ----     -------------------  ------------
    12     0.647014  -0.788213  1 At s                185     0.647008  -0.788205  2 At s          
   184    -0.445344   0.542532  2 At s                 11    -0.445330   0.542515  1 At s          
   183     0.268386  -0.326956  2 At s                 10     0.268376  -0.326945  1 At s          
   182    -0.261284   0.318304  2 At s                  9    -0.261276   0.318295  1 At s          
     5     0.105093  -0.128028  1 At s                178     0.105093  -0.128027  2 At s          

 Vector   55  Occ=0.000000D+00  E= 1.251428D-02
              MO Center=  1.2D-07,  8.8D-08, -6.8D-07, r^2= 1.9D+01
  Bfn.         Coefficient        Function           Bfn.         Coefficient        Function  
  ----     -------------------  ------------         ----     -------------------  ------------
    45     1.268717  -0.790994  1 At pz               218     1.268715  -0.790993  2 At pz         
    42    -1.010498   0.630005  1 At pz               215    -1.010497   0.630005  2 At pz         
    12     0.888126  -0.553711  1 At s                185    -0.888124   0.553710  2 At s          
    11    -0.682275   0.425371  1 At s                184     0.682271  -0.425368  2 At s          
    39     0.433385  -0.270198  1 At pz               212     0.433384  -0.270198  2 At pz         

 Vector   56  Occ=0.000000D+00  E= 1.251428D-02
              MO Center= -2.1D-08,  5.5D-09, -1.8D-07, r^2= 1.3D+00
  Bfn.         Coefficient        Function           Bfn.         Coefficient        Function  
  ----     -------------------  ------------         ----     -------------------  ------------
   391     1.485112  -0.172508  1 At pz               564     1.485110  -0.172508  2 At pz         
   388    -1.182851   0.137398  1 At pz               561    -1.182849   0.137398  2 At pz         
   358     1.039606  -0.120759  1 At s                531    -1.039604   0.120759  2 At s          
   357    -0.798644   0.092769  1 At s                530     0.798640  -0.092769  2 At s          
   385     0.507304  -0.058928  1 At pz               558     0.507303  -0.058928  2 At pz         

 Vector   57  Occ=0.000000D+00  E= 2.227639D-02
              MO Center=  3.9D-08,  1.4D-08, -3.7D-07, r^2= 3.1D+00
  Bfn.         Coefficient        Function           Bfn.         Coefficient        Function  
  ----     -------------------  ------------         ----     -------------------  ------------
   390     0.235787   0.603150  1 At py               389     0.603150  -0.235788  1 At px         
   563     0.235787   0.603148  2 At py               562     0.603148  -0.235787  2 At px         
    45    -0.590343   0.230781  1 At pz               218    -0.590342   0.230781  2 At pz         
    42     0.542512  -0.212083  1 At pz               215     0.542511  -0.212082  2 At pz         
   387    -0.184005  -0.470690  1 At py               386    -0.470690   0.184006  1 At px         

 Vector   58  Occ=0.000000D+00  E= 2.227639D-02
              MO Center= -1.3D-07,  1.2D-07, -2.1D-06, r^2= 1.2D+01
  Bfn.         Coefficient        Function           Bfn.         Coefficient        Function  
  ----     -------------------  ------------         ----     -------------------  ------------
    44    -0.356908  -0.540373  1 At py                43     0.540373  -0.356907  1 At px         
   217    -0.356906  -0.540371  2 At py               216     0.540371  -0.356906  2 At px         
   391     0.528899  -0.349329  1 At pz               564     0.528898  -0.349329  2 At pz         
   388    -0.486046   0.321025  1 At pz               561    -0.486045   0.321025  2 At pz         
    41     0.278526   0.421699  1 At py                40    -0.421699   0.278525  1 At px         

 Vector   59  Occ=0.000000D+00  E= 2.377323D-02
              MO Center=  4.3D-08,  1.1D-07, -2.0D-06, r^2= 1.3D+01
  Bfn.         Coefficient        Function           Bfn.         Coefficient        Function  
  ----     -------------------  ------------         ----     -------------------  ------------
    43    -0.070273  -0.680984  1 At px                44     0.680984  -0.070273  1 At py         
   216    -0.070273  -0.680982  2 At px               217     0.680981  -0.070273  2 At py         
    40     0.056854   0.550941  1 At px                41    -0.550941   0.056854  1 At py         
   213     0.056853   0.550940  2 At px               214    -0.550940   0.056854  2 At py         
    37    -0.032837  -0.318209  1 At px                38     0.318209  -0.032837  1 At py         

 Vector   60  Occ=0.000000D+00  E= 2.377323D-02
              MO Center=  2.1D-09,  1.1D-08, -1.3D-07, r^2= 8.7D-01
  Bfn.         Coefficient        Function           Bfn.         Coefficient        Function  
  ----     -------------------  ------------         ----     -------------------  ------------
   389     0.651581   0.210046  1 At px               390     0.210046  -0.651581  1 At py         
   562     0.651579   0.210045  2 At px               563     0.210046  -0.651579  2 At py         
   386    -0.527153  -0.169935  1 At px               387    -0.169935   0.527153  1 At py         
   559    -0.527153  -0.169935  2 At px               560    -0.169935   0.527152  2 At py         
   383     0.304470   0.098150  1 At px               384     0.098150  -0.304469  1 At py         

 Vector   61  Occ=0.000000D+00  E= 2.887386D-02
              MO Center=  1.2D-08,  9.4D-10,  1.6D-06, r^2= 1.8D+01
  Bfn.         Coefficient        Function           Bfn.         Coefficient        Function  
  ----     -------------------  ------------         ----     -------------------  ------------
    45    -1.249154   0.949361  1 At pz               218     1.249152  -0.949360  2 At pz         
   215    -0.673298   0.511709  2 At pz                42     0.673297  -0.511708  1 At pz         
    11     0.408717  -0.310626  1 At s                184     0.408714  -0.310624  2 At s          
   212     0.394131  -0.299541  2 At pz                39    -0.394130   0.299540  1 At pz         
    10    -0.254600   0.193497  1 At s                183    -0.254599   0.193496  2 At s          

 Vector   62  Occ=0.000000D+00  E= 2.887386D-02
              MO Center=  3.4D-09,  1.8D-09,  3.9D-08, r^2= 4.9D-01
  Bfn.         Coefficient        Function           Bfn.         Coefficient        Function  
  ----     -------------------  ------------         ----     -------------------  ------------
   391    -1.544648  -0.275199  1 At pz               564     1.544646   0.275198  2 At pz         
   561    -0.832570  -0.148333  2 At pz               388     0.832570   0.148333  1 At pz         
   357     0.505401   0.090044  1 At s                530     0.505398   0.090043  2 At s          
   558     0.487364   0.086830  2 At pz               385    -0.487363  -0.086830  1 At pz         
   356    -0.314827  -0.056090  1 At s                529    -0.314826  -0.056090  2 At s          

 Vector   63  Occ=0.000000D+00  E= 3.660573D-02
              MO Center= -8.6D-08,  1.4D-08,  1.6D-06, r^2= 1.6D+01
  Bfn.         Coefficient        Function           Bfn.         Coefficient        Function  
  ----     -------------------  ------------         ----     -------------------  ------------
   217     0.054680  -1.530845  2 At py               216     1.530845   0.054682  2 At px         
    44    -0.054680   1.530844  1 At py                43    -1.530843  -0.054682  1 At px         
   214    -0.028392   0.794877  2 At py               213    -0.794877  -0.028393  2 At px         
    41     0.028392  -0.794876  1 At py                40     0.794875   0.028393  1 At px         
   211     0.013173  -0.368809  2 At py               210     0.368809   0.013174  2 At px         

 Vector   64  Occ=0.000000D+00  E= 3.660573D-02
              MO Center=  4.8D-08,  3.5D-09,  1.0D-07, r^2= 1.0D+00
  Bfn.         Coefficient        Function           Bfn.         Coefficient        Function  
  ----     -------------------  ------------         ----     -------------------  ------------
   563     0.681613   1.371817  2 At py               562     1.371815  -0.681615  2 At px         
   390    -0.681612  -1.371815  1 At py               389    -1.371814   0.681614  1 At px         
   560    -0.353921  -0.712303  2 At py               559    -0.712302   0.353922  2 At px         
   387     0.353920   0.712302  1 At py               386     0.712301  -0.353922  1 At px         
   557     0.164213   0.330497  2 At py               556     0.330496  -0.164214  2 At px         

 Vector   65  Occ=0.000000D+00  E= 3.881744D-02
              MO Center=  2.2D-08,  8.1D-10,  1.7D-06, r^2= 1.7D+01
  Bfn.         Coefficient        Function           Bfn.         Coefficient        Function  
  ----     -------------------  ------------         ----     -------------------  ------------
   216     0.056867   1.632752  2 At px               217    -1.632751   0.056868  2 At py         
    43    -0.056866  -1.632750  1 At px                44     1.632750  -0.056868  1 At py         
   213    -0.030912  -0.887555  2 At px               214     0.887555  -0.030913  2 At py         
    40     0.030912   0.887553  1 At px                41    -0.887553   0.030913  1 At py         
   210     0.013556   0.389216  2 At px               211    -0.389216   0.013556  2 At py         

 Vector   66  Occ=0.000000D+00  E= 3.881744D-02
              MO Center=  3.8D-11,  1.5D-09,  9.2D-09, r^2= 8.9D-02
  Bfn.         Coefficient        Function           Bfn.         Coefficient        Function  
  ----     -------------------  ------------         ----     -------------------  ------------
   562     1.546443   0.526902  2 At px               563     0.526903  -1.546442  2 At py         
   389    -1.546442  -0.526901  1 At px               390    -0.526903   1.546441  1 At py         
   559    -0.840638  -0.286421  2 At px               560    -0.286422   0.840637  2 At py         
   386     0.840636   0.286420  1 At px               387     0.286421  -0.840636  1 At py         
   556     0.368642   0.125603  2 At px               557     0.125603  -0.368642  2 At py         

 Vector   67  Occ=0.000000D+00  E= 5.109927D-02
              MO Center=  2.2D-11, -6.5D-11, -3.1D-10, r^2= 4.3D-03
  Bfn.         Coefficient        Function           Bfn.         Coefficient        Function  
  ----     -------------------  ------------         ----     -------------------  ------------
   437    -0.470546   0.030192  1 At d -2             610    -0.470545   0.030192  2 At d -2       
   441     0.030188   0.470489  1 At d  2             614     0.030188   0.470488  2 At d  2       
   427    -0.202390   0.012986  1 At d -2             600    -0.202390   0.012986  2 At d -2       
   431     0.012985   0.202366  1 At d  2             604     0.012985   0.202366  2 At d  2       
   432     0.197834  -0.012694  1 At d -2             605     0.197834  -0.012694  2 At d -2       

 Vector   68  Occ=0.000000D+00  E= 5.109927D-02
              MO Center= -3.6D-08, -4.6D-08, -8.4D-07, r^2= 7.0D+00
  Bfn.         Coefficient        Function           Bfn.         Coefficient        Function  
  ----     -------------------  ------------         ----     -------------------  ------------
    91    -0.456713  -0.117210  1 At d -2             264    -0.456712  -0.117210  2 At d -2       
    95     0.117196  -0.456657  1 At d  2             268     0.117196  -0.456657  2 At d  2       
    81    -0.196440  -0.050414  1 At d -2             254    -0.196440  -0.050414  2 At d -2       
    85     0.050408  -0.196417  1 At d  2             258     0.050408  -0.196416  2 At d  2       
    86     0.192019   0.049280  1 At d -2             259     0.192018   0.049279  2 At d -2       

 Vector   69  Occ=0.000000D+00  E= 5.110043D-02
              MO Center= -5.6D-12,  3.0D-12, -2.8D-11, r^2= 2.8D-04
  Bfn.         Coefficient        Function           Bfn.         Coefficient        Function  
  ----     -------------------  ------------         ----     -------------------  ------------
   441    -0.030169   0.472979  1 At d  2             614    -0.030169   0.472978  2 At d  2       
   437     0.472922   0.030166  1 At d -2             610     0.472921   0.030165  2 At d -2       
   431    -0.012878   0.201890  1 At d  2             604    -0.012878   0.201890  2 At d  2       
   427     0.201866   0.012876  1 At d -2             600     0.201865   0.012876  2 At d -2       
   436     0.012714  -0.199329  1 At d  2             609     0.012714  -0.199329  2 At d  2       

 Vector   70  Occ=0.000000D+00  E= 5.110043D-02
              MO Center= -3.4D-08, -5.8D-08, -8.3D-07, r^2= 7.0D+00
  Bfn.         Coefficient        Function           Bfn.         Coefficient        Function  
  ----     -------------------  ------------         ----     -------------------  ------------
    95    -0.287416  -0.376844  1 At d  2             268    -0.287415  -0.376843  2 At d  2       
    91     0.376799  -0.287381  1 At d -2             264     0.376798  -0.287381  2 At d -2       
    85    -0.122683  -0.160855  1 At d  2             258    -0.122683  -0.160855  2 At d  2       
    81     0.160836  -0.122668  1 At d -2             254     0.160835  -0.122668  2 At d -2       
[...]
  ----     -------------------  ------------         ----     -------------------  ------------
   364     1.927781   2.231742  1 At pz               537    -1.927705  -2.231654  2 At pz         
   367    -1.893525  -2.192085  1 At pz               540     1.893450   2.191998  2 At pz         
   370     1.523258   1.763436  1 At pz               543    -1.523197  -1.763365  2 At pz         
   361    -1.181247  -1.367499  1 At pz               534     1.181201   1.367446  2 At pz         
   373    -1.126297  -1.303884  1 At pz               546     1.126251   1.303831  2 At pz         

 Vector  686  Occ=0.000000D+00  E= 2.789618D+02
              MO Center=  1.5D-10,  2.3D-09, -3.9D-05, r^2= 1.6D+00
  Bfn.         Coefficient        Function           Bfn.         Coefficient        Function  
  ----     -------------------  ------------         ----     -------------------  ------------
    18     2.892816  -0.573263  1 At pz               191    -2.892701   0.573240  2 At pz         
    21    -2.841412   0.563076  1 At pz               194     2.841299  -0.563054  2 At pz         
    24     2.285791  -0.452970  1 At pz               197    -2.285699   0.452952  2 At pz         
    15    -1.772572   0.351267  1 At pz               188     1.772502  -0.351253  2 At pz         
    27    -1.690113   0.334926  1 At pz               200     1.690044  -0.334912  2 At pz         

 Vector  687  Occ=0.000000D+00  E= 2.790705D+02
              MO Center= -1.1D-09,  1.8D-09,  1.1D-05, r^2= 4.5D-01
  Bfn.         Coefficient        Function           Bfn.         Coefficient        Function  
  ----     -------------------  ------------         ----     -------------------  ------------
   537    -1.502213   2.576365  2 At pz               364    -1.502154   2.576265  1 At pz         
   540     1.483117  -2.543616  2 At pz               367     1.483060  -2.543518  1 At pz         
   543    -1.205274   2.067101  2 At pz               370    -1.205228   2.067022  1 At pz         
   534     0.918121  -1.574621  2 At pz               361     0.918086  -1.574560  1 At pz         
   546     0.908695  -1.558455  2 At pz               373     0.908661  -1.558397  1 At pz         

 Vector  688  Occ=0.000000D+00  E= 2.790705D+02
              MO Center= -2.6D-10, -2.3D-09,  3.9D-05, r^2= 1.6D+00
  Bfn.         Coefficient        Function           Bfn.         Coefficient        Function  
  ----     -------------------  ------------         ----     -------------------  ------------
   191     2.904362  -0.677482  2 At pz                18     2.904249  -0.677456  1 At pz         
   194    -2.867443   0.668870  2 At pz                21    -2.867333   0.668845  1 At pz         
   197     2.330263  -0.543566  2 At pz                24     2.330174  -0.543545  1 At pz         
   188    -1.775086   0.414063  2 At pz                15    -1.775017   0.414047  1 At pz         
   200    -1.756862   0.409812  2 At pz                27    -1.756796   0.409797  1 At pz         

 Vector  689  Occ=0.000000D+00  E= 2.181785D+03
              MO Center=  7.3D-17,  2.9D-18, -2.2D-12, r^2= 7.3D-07
  Bfn.         Coefficient        Function           Bfn.         Coefficient        Function  
  ----     -------------------  ------------         ----     -------------------  ------------
   349     7.232623  -0.000000  1 At s                522     7.232587  -0.000000  2 At s          
   348    -6.437417   0.000000  1 At s                521    -6.437385   0.000000  2 At s          
   350    -6.392049   0.000000  1 At s                523    -6.392017   0.000000  2 At s          
   351     5.037227  -0.000000  1 At s                524     5.037201  -0.000000  2 At s          
   352    -3.713897   0.000000  1 At s                525    -3.713878   0.000000  2 At s          

 Vector  690  Occ=0.000000D+00  E= 2.181785D+03
              MO Center=  5.1D-13,  3.1D-13, -2.3D-07, r^2= 7.6D-02
  Bfn.         Coefficient        Function           Bfn.         Coefficient        Function  
  ----     -------------------  ------------         ----     -------------------  ------------
     3    -1.248465  -7.124055  1 At s                176    -1.248459  -7.124020  2 At s          
     2     1.111200   6.340787  1 At s                175     1.111195   6.340755  2 At s          
     4     1.103369   6.296099  1 At s                177     1.103363   6.296068  2 At s          
     5    -0.869505  -4.961614  1 At s                178    -0.869501  -4.961589  2 At s          
     6     0.641077   3.658148  1 At s                179     0.641074   3.658129  2 At s          

 Vector  691  Occ=0.000000D+00  E= 2.182655D+03
              MO Center= -1.1D-17,  7.3D-20,  6.3D-14, r^2= 2.0D-08
  Bfn.         Coefficient        Function           Bfn.         Coefficient        Function  
  ----     -------------------  ------------         ----     -------------------  ------------
   522     7.277845   0.000000  2 At s                349    -7.277809  -0.000000  1 At s          
   523    -6.474646  -0.000000  2 At s                350     6.474615   0.000000  1 At s          
   521    -6.456543  -0.000000  2 At s                348     6.456512   0.000000  1 At s          
   524     5.172360   0.000000  2 At s                351    -5.172335  -0.000000  1 At s          
   525    -3.926786  -0.000000  2 At s                352     3.926768   0.000000  1 At s          

 Vector  692  Occ=0.000000D+00  E= 2.182655D+03
              MO Center=  1.7D-14,  1.0D-14,  8.7D-09, r^2= 2.8D-03
  Bfn.         Coefficient        Function           Bfn.         Coefficient        Function  
  ----     -------------------  ------------         ----     -------------------  ------------
   176    -0.243107  -7.273783  2 At s                  3     0.243106   7.273748  1 At s          
   177     0.216277   6.471033  2 At s                  4    -0.216276  -6.471002  1 At s          
   175     0.215672   6.452940  2 At s                  2    -0.215671  -6.452908  1 At s          
   178    -0.172776  -5.169474  2 At s                  5     0.172775   5.169449  1 At s          
   179     0.131169   3.924595  2 At s                  6    -0.131169  -3.924576  1 At s          


   alpha - beta orbital overlaps 
   ----------------------------- 


   alpha      1      2      3      4      5      6      7      8      9     10
    beta      5      5      5      5      5      5      5      5      5      5
 overlap   0.049  0.403  0.543  2.432  3.922  0.252  0.853  1.563  0.226  0.523


   alpha     11     12     13     14     15     16     17     18     19     20
    beta      5    178     22     23     24     22     23     24     22     23
 overlap   0.373  0.082  0.028  0.028  0.026  0.153  0.153  0.139  0.230  0.230


   alpha     21     22     23     24     25     26     27     28     29     30
    beta     24     22     23     24     22     23     24     22     23     24
 overlap   0.222  0.892  0.892  0.824  0.272  0.272  0.243  0.164  0.164  0.190


   alpha     31     32     33     34     35     36     37     38     39     40
    beta     22     23     24     31     32      5     22     23    178     34
 overlap   0.248  0.248  0.186  0.151  0.151  0.115  0.124  0.124  0.087  0.010


   alpha     41     42     43     44     45     46     47     48     49     50
    beta     35      5     22     23    178     61     62     63     64     65
 overlap   0.010  0.167  0.008  0.008  0.023  0.001  0.001  0.001  0.001  0.001


   alpha     51     52     53     54     55     56     57     58     59     60
    beta     61     62     63     64     65     61     62     63     64     65
 overlap   0.022  0.022  0.022  0.022  0.022  0.002  0.002  0.002  0.002  0.002


   alpha     61     62     63     64     65     66     67     68     69     70
    beta     61     62     63     64     65     61     62     63     64     65
 overlap   0.212  0.211  0.211  0.211  0.212  0.181  0.181  0.181  0.181  0.181


   alpha     71     72     73     74     75     76     77     78     79     80
    beta     61     62     63     64     65     61     62     24     64     65
 overlap   0.111  0.111  0.112  0.111  0.111  0.015  0.014  0.015  0.014  0.015


   alpha     81     82     83     84     85     86     87     88     89     90
    beta     61     62      5     64     65     61     62      5     64     65
 overlap   0.008  0.008  0.038  0.008  0.008  0.003  0.004  0.033  0.004  0.003


   alpha     91     92     93     94     95     96     97     98     99    100
    beta     61    196      5    195     65     61     61    205      5    204
 overlap   0.001  0.003  0.051  0.003  0.001  0.000  0.000  0.000  0.000  0.000


   alpha    101    102    103    104    105    106    107    108    109    110
    beta     65     65     61     61     23      5     22     65     65     61
 overlap   0.000  0.000  0.000  0.000  0.000  0.002  0.000  0.000  0.000  0.000


   alpha    111    112    113    114    115    116    117    118    119    120
    beta     61    205      5    204     65     65     61    234     23      5
 overlap   0.000  0.001  0.004  0.001  0.000  0.000  0.000  0.000  0.001  0.007


   alpha    121    122    123    124    125    126    127    128    129    130
    beta     22    238     65     61     61    205    178    204     65     65
 overlap   0.001  0.000  0.000  0.000  0.000  0.002  0.012  0.002  0.000  0.000


   alpha    131    132    133    134    135    136    137    138    139    140
    beta     65    234    205    197    204    238     61     23     61     61
 overlap   0.000  0.000  0.002  0.008  0.002  0.000  0.000  0.000  0.000  0.000


   alpha    141    142    143    144    145    146    147    148    149    150
    beta     62      5     64     65     65      5     23     61     61     62
 overlap   0.000  0.000  0.000  0.000  0.000  0.000  0.000  0.000  0.000  0.000


   alpha    151    152    153    154    155    156    157    158    159    160
    beta      5     64     65     65      5     65     61     61     32      5
 overlap   0.001  0.000  0.000  0.000  0.000  0.000  0.000  0.000  0.000  0.003


   alpha    161    162    163    164    165    166    167    168    169    170
    beta     31     65     65     61     65     64     61    196    178    195
 overlap   0.000  0.000  0.000  0.000  0.000  0.000  0.000  0.002  0.007  0.002


   alpha    171    172    173    174    175    176    177    178    179    180
    beta     65     62     61    178    178    178    178    178    178    178
 overlap   0.000  0.000  0.000  0.049  0.403  0.543  2.432  3.922  0.252  0.853


   alpha    181    182    183    184    185    186    187    188    189    190
    beta    178    178    178    178      5    195    196    197    195    196
 overlap   1.563  0.226  0.523  0.373  0.082  0.028  0.028  0.026  0.153  0.153


   alpha    191    192    193    194    195    196    197    198    199    200
    beta    197    195    196    197    195    196    197    195    196    197
 overlap   0.139  0.230  0.230  0.222  0.892  0.892  0.824  0.272  0.272  0.243


   alpha    201    202    203    204    205    206    207    208    209    210
    beta    195    196    197    195    196    197    204    205    178    195
 overlap   0.164  0.164  0.190  0.248  0.248  0.186  0.151  0.151  0.115  0.124


   alpha    211    212    213    214    215    216    217    218    219    220
    beta    196      5    207    208    178    195    196      5    234    235
 overlap   0.124  0.087  0.010  0.010  0.167  0.008  0.008  0.023  0.001  0.001


   alpha    221    222    223    224    225    226    227    228    229    230
    beta    236    237    238    234    235    236    237    238    234    235
 overlap   0.001  0.001  0.001  0.022  0.022  0.022  0.022  0.022  0.002  0.002


   alpha    231    232    233    234    235    236    237    238    239    240
    beta    236    237    238    234    235    236    237    238    234    235
 overlap   0.002  0.002  0.002  0.212  0.211  0.211  0.211  0.212  0.181  0.181


   alpha    241    242    243    244    245    246    247    248    249    250
    beta    236    237    238    234    235    236    237    238    234    235
 overlap   0.181  0.181  0.181  0.111  0.111  0.112  0.111  0.111  0.015  0.014


   alpha    251    252    253    254    255    256    257    258    259    260
    beta    197    237    238    234    235    178    237    238    234    235
 overlap   0.015  0.014  0.015  0.008  0.008  0.038  0.008  0.008  0.003  0.004


   alpha    261    262    263    264    265    266    267    268    269    270
    beta    178    237    238    234     23    178     22    238    234    234
 overlap   0.033  0.004  0.003  0.001  0.003  0.051  0.003  0.001  0.000  0.000


   alpha    271    272    273    274    275    276    277    278    279    280
    beta     32    178     31    238    238    234    234    196    178    195
 overlap   0.000  0.000  0.000  0.000  0.000  0.000  0.000  0.000  0.002  0.000


   alpha    281    282    283    284    285    286    287    288    289    290
    beta    238    238    234    234     32    178     31    238    238    234
 overlap   0.000  0.000  0.000  0.000  0.001  0.004  0.001  0.000  0.000  0.000


   alpha    291    292    293    294    295    296    297    298    299    300
    beta     61    196    178    195     65    238    234    234     32      5
 overlap   0.000  0.001  0.007  0.001  0.000  0.000  0.000  0.000  0.002  0.012


   alpha    301    302    303    304    305    306    307    308    309    310
    beta     31    238    238    204     61     32     24     31     65    205
 overlap   0.002  0.000  0.000  0.000  0.000  0.002  0.008  0.002  0.000  0.000


   alpha    311    312    313    314    315    316    317    318    319    320
    beta    196    234    234    235    178    237    238    238    178    196
 overlap   0.000  0.000  0.000  0.000  0.000  0.000  0.000  0.000  0.000  0.000


   alpha    321    322    323    324    325    326    327    328    329    330
    beta    234    234    235    178    237    238    238    178    238    238
 overlap   0.000  0.000  0.000  0.001  0.000  0.000  0.000  0.000  0.000  0.000


   alpha    331    332    333    334    335    336    337    338    339    340
    beta    234    205    178    204    238    238    234    238    181    234

------------------------------------------------------------
EAF file 0: "/work/akanane/users/kennet/GA/parallel/ga_at/tmp2/nwcat2.aoints.0" size=3895459840 bytes
------------------------------------------------------------
               write      read    awrite     aread      wait
               -----      ----    ------     -----      ----
     calls:     7430        53         0    393737    393737
   data(b): 3.90e+09  2.78e+07  0.00e+00  2.06e+11
   time(s): 0.00e+00  0.00e+00  0.00e+00  0.00e+00  0.00e+00
rate(mb/s): 0.00e+00  0.00e+00
------------------------------------------------------------

 overlap   0.000  0.000  0.003  0.000  0.000  0.000  0.000  0.000  0.000  0.000


   alpha    341    342    343    344    345    346
    beta     23      5     22    238    235    234
 overlap   0.002  0.007  0.002  0.000  0.000  0.000

     --------------------------
     Expectation value of S2:  
     --------------------------
      <S2> =      0.4087 (Exact =     0.0000)


     Multipole analysis of the density
     ---------------------------------

     L   x y z        total         alpha         beta         nuclear
     -   - - -        -----         -----         ----         -------
     0   0 0 0      0.000000    -24.999987    -25.000013     50.000000

     1   1 0 0      0.000000      0.000000     -0.000000      0.000000
     1   0 1 0     -0.000000     -0.000000      0.000000      0.000000
     1   0 0 1      0.000087      0.000046      0.000041      0.000000

     2   2 0 0    -47.441229    -23.720603    -23.720626      0.000000
     2   1 1 0      0.000000      0.000000      0.000000      0.000000
     2   1 0 1      0.000313      0.000128      0.000185      0.000000
     2   0 2 0    -47.441229    -23.720603    -23.720626      0.000000
     2   0 1 1      0.000095      0.000102     -0.000006      0.000000
     2   0 0 2    -41.496518   -246.224812   -246.225910    450.954204


 Parallel integral file used    7430 records with       0 large values


 Task  times  cpu:      325.2s     wall:      359.1s
 Summary of allocated global arrays
-----------------------------------
  No active global arrays



                         GA Statistics for process    0
                         ------------------------------

       create   destroy   get      put      acc     scatter   gather  read&inc
calls: 5509     5509     4.18e+05 2.65e+05 8.44e+05    0        0     2.65e+04 
number of processes/call 1.00e+00 1.00e+00 1.00e+00 0.00e+00 0.00e+00
bytes total:             2.39e+10 9.82e+09 1.14e+10 0.00e+00 0.00e+00 2.12e+05
bytes remote:            0.00e+00 0.00e+00 0.00e+00 0.00e+00 0.00e+00 0.00e+00
Max memory consumed for GA by this process: 294022496 bytes
MA_summarize_allocated_blocks: starting scan ...
MA_summarize_allocated_blocks: scan completed: 0 heap blocks, 0 stack blocks
MA usage statistics:

	allocation statistics:
					      heap	     stack
					      ----	     -----
	current number of blocks	         0	         0
	maximum number of blocks	        45	        57
	current total bytes		         0	         0
	maximum total bytes		  21420352	  69733288
	maximum total K-bytes		     21421	     69734
	maximum total M-bytes		        22	        70


                                NWChem Input Module
                                -------------------





                                     CITATION
                                     --------
                Please cite the following reference when publishing
                           results obtained with NWChem:

                 M. Valiev, E.J. Bylaska, N. Govind, K. Kowalski,
              T.P. Straatsma, H.J.J. van Dam, D. Wang, J. Nieplocha,
                        E. Apra, T.L. Windus, W.A. de Jong
                 "NWChem: a comprehensive and scalable open-source
                  solution for large scale molecular simulations"
                      Comput. Phys. Commun. 181, 1477 (2010)
                           doi:10.1016/j.cpc.2010.04.018

                                      AUTHORS
                                      -------
          E. Apra, E. J. Bylaska, W. A. de Jong, N. Govind, K. Kowalski,
       T. P. Straatsma, M. Valiev, H. J. J. van Dam, D. Wang, T. L. Windus,
        J. Hammond, J. Autschbach, K. Bhaskaran-Nair, J. Brabec, K. Lopata,
    S. A. Fischer, S. Krishnamoorthy, M. Jacquelin, W. Ma, M. Klemm, O. Villa,
      Y. Chen, V. Anisimov, F. Aquino, S. Hirata, M. T. Hackler, V. Konjkov,
            D. Mejia-Rodriguez, T. Risthaus, M. Malagoli, A. Marenich,
   A. Otero-de-la-Roza, J. Mullin, P. Nichols, R. Peverati, J. Pittner, Y. Zhao,
        P.-D. Fan, A. Fonari, M. J. Williamson, R. J. Harrison, J. R. Rehr,
      M. Dupuis, D. Silverstein, D. M. A. Smith, J. Nieplocha, V. Tipparaju,
    M. Krishnan, B. E. Van Kuiken, A. Vazquez-Mayagoitia, L. Jensen, M. Swart,
      Q. Wu, T. Van Voorhis, A. A. Auer, M. Nooijen, L. D. Crosby, E. Brown,
      G. Cisneros, G. I. Fann, H. Fruchtl, J. Garza, K. Hirao, R. A. Kendall,
      J. A. Nichols, K. Tsemekhman, K. Wolinski, J. Anchell, D. E. Bernholdt,
      P. Borowski, T. Clark, D. Clerc, H. Dachsel, M. J. O. Deegan, K. Dyall,
    D. Elwood, E. Glendening, M. Gutowski, A. C. Hess, J. Jaffe, B. G. Johnson,
     J. Ju, R. Kobayashi, R. Kutteh, Z. Lin, R. Littlefield, X. Long, B. Meng,
      T. Nakajima, S. Niu, L. Pollack, M. Rosing, K. Glaesemann, G. Sandrone,
      M. Stave, H. Taylor, G. Thomas, J. H. van Lenthe, A. T. Wong, Z. Zhang.

 Total times  cpu:     1822.6s     wall:     2606.0s
